# Fe

600 atoms
33 atom types
0  9710.956924 xlo xhi
0    28.553240 ylo yhi
0    28.553240 zlo zhi

Atoms

           1      7  1027.916640     0.000000     0.000000
           2      7  1029.344302     1.427662     1.427662
           3      7  1027.916640     0.000000     2.855324
           4      7  1029.344302     1.427662     4.282986
           5      7  1027.916640     0.000000     5.710648
           6      7  1029.344302     1.427662     7.138310
           7      7  1027.916640     0.000000     8.565972
           8      7  1029.344302     1.427662     9.993634
           9      7  1027.916640     0.000000    11.421296
          10      7  1029.344302     1.427662    12.848958
          11      7  1027.916640     0.000000    14.276620
          12      7  1029.344302     1.427662    15.704282
          13      7  1027.916640     0.000000    17.131944
          14      7  1029.344302     1.427662    18.559606
          15      7  1027.916640     0.000000    19.987268
          16      7  1029.344302     1.427662    21.414930
          17      7  1027.916640     0.000000    22.842592
          18      7  1029.344302     1.427662    24.270254
          19      7  1027.916640     0.000000    25.697916
          20      7  1029.344302     1.427662    27.125578
          21      7  1027.916640     2.855324     0.000000
          22      7  1029.344302     4.282986     1.427662
          23      7  1027.916640     2.855324     2.855324
          24      7  1029.344302     4.282986     4.282986
          25      7  1027.916640     2.855324     5.710648
          26      7  1029.344302     4.282986     7.138310
          27      7  1027.916640     2.855324     8.565972
          28      7  1029.344302     4.282986     9.993634
          29      7  1027.916640     2.855324    11.421296
          30      7  1029.344302     4.282986    12.848958
          31      7  1027.916640     2.855324    14.276620
          32      7  1029.344302     4.282986    15.704282
          33      7  1027.916640     2.855324    17.131944
          34      7  1029.344302     4.282986    18.559606
          35      7  1027.916640     2.855324    19.987268
          36      7  1029.344302     4.282986    21.414930
          37      7  1027.916640     2.855324    22.842592
          38      7  1029.344302     4.282986    24.270254
          39      7  1027.916640     2.855324    25.697916
          40      7  1029.344302     4.282986    27.125578
          41      7  1027.916640     5.710648     0.000000
          42      7  1029.344302     7.138310     1.427662
          43      7  1027.916640     5.710648     2.855324
          44      7  1029.344302     7.138310     4.282986
          45      7  1027.916640     5.710648     5.710648
          46      7  1029.344302     7.138310     7.138310
          47      7  1027.916640     5.710648     8.565972
          48      7  1029.344302     7.138310     9.993634
          49      7  1027.916640     5.710648    11.421296
          50      7  1029.344302     7.138310    12.848958
          51      7  1027.916640     5.710648    14.276620
          52      7  1029.344302     7.138310    15.704282
          53      7  1027.916640     5.710648    17.131944
          54      7  1029.344302     7.138310    18.559606
          55      7  1027.916640     5.710648    19.987268
          56      7  1029.344302     7.138310    21.414930
          57      7  1027.916640     5.710648    22.842592
          58      7  1029.344302     7.138310    24.270254
          59      7  1027.916640     5.710648    25.697916
          60      7  1029.344302     7.138310    27.125578
          61      7  1027.916640     8.565972     0.000000
          62      7  1029.344302     9.993634     1.427662
          63      7  1027.916640     8.565972     2.855324
          64      7  1029.344302     9.993634     4.282986
          65      7  1027.916640     8.565972     5.710648
          66      7  1029.344302     9.993634     7.138310
          67      7  1027.916640     8.565972     8.565972
          68      7  1029.344302     9.993634     9.993634
          69      7  1027.916640     8.565972    11.421296
          70      7  1029.344302     9.993634    12.848958
          71      7  1027.916640     8.565972    14.276620
          72      7  1029.344302     9.993634    15.704282
          73      7  1027.916640     8.565972    17.131944
          74      7  1029.344302     9.993634    18.559606
          75      7  1027.916640     8.565972    19.987268
          76      7  1029.344302     9.993634    21.414930
          77      7  1027.916640     8.565972    22.842592
          78      7  1029.344302     9.993634    24.270254
          79      7  1027.916640     8.565972    25.697916
          80      7  1029.344302     9.993634    27.125578
          81      7  1027.916640    11.421296     0.000000
          82      7  1029.344302    12.848958     1.427662
          83      7  1027.916640    11.421296     2.855324
          84      7  1029.344302    12.848958     4.282986
          85      7  1027.916640    11.421296     5.710648
          86      7  1029.344302    12.848958     7.138310
          87      7  1027.916640    11.421296     8.565972
          88      7  1029.344302    12.848958     9.993634
          89      7  1027.916640    11.421296    11.421296
          90      7  1029.344302    12.848958    12.848958
          91      7  1027.916640    11.421296    14.276620
          92      7  1029.344302    12.848958    15.704282
          93      7  1027.916640    11.421296    17.131944
          94      7  1029.344302    12.848958    18.559606
          95      7  1027.916640    11.421296    19.987268
          96      7  1029.344302    12.848958    21.414930
          97      7  1027.916640    11.421296    22.842592
          98      7  1029.344302    12.848958    24.270254
          99      7  1027.916640    11.421296    25.697916
         100      7  1029.344302    12.848958    27.125578
         101      7  1027.916640    14.276620     0.000000
         102      7  1029.344302    15.704282     1.427662
         103      7  1027.916640    14.276620     2.855324
         104      7  1029.344302    15.704282     4.282986
         105      7  1027.916640    14.276620     5.710648
         106      7  1029.344302    15.704282     7.138310
         107      7  1027.916640    14.276620     8.565972
         108      7  1029.344302    15.704282     9.993634
         109      7  1027.916640    14.276620    11.421296
         110      7  1029.344302    15.704282    12.848958
         111      7  1027.916640    14.276620    14.276620
         112      7  1029.344302    15.704282    15.704282
         113      7  1027.916640    14.276620    17.131944
         114      7  1029.344302    15.704282    18.559606
         115      7  1027.916640    14.276620    19.987268
         116      7  1029.344302    15.704282    21.414930
         117      7  1027.916640    14.276620    22.842592
         118      7  1029.344302    15.704282    24.270254
         119      7  1027.916640    14.276620    25.697916
         120      7  1029.344302    15.704282    27.125578
         121      7  1027.916640    17.131944     0.000000
         122      7  1029.344302    18.559606     1.427662
         123      7  1027.916640    17.131944     2.855324
         124      7  1029.344302    18.559606     4.282986
         125      7  1027.916640    17.131944     5.710648
         126      7  1029.344302    18.559606     7.138310
         127      7  1027.916640    17.131944     8.565972
         128      7  1029.344302    18.559606     9.993634
         129      7  1027.916640    17.131944    11.421296
         130      7  1029.344302    18.559606    12.848958
         131      7  1027.916640    17.131944    14.276620
         132      7  1029.344302    18.559606    15.704282
         133      7  1027.916640    17.131944    17.131944
         134      7  1029.344302    18.559606    18.559606
         135      7  1027.916640    17.131944    19.987268
         136      7  1029.344302    18.559606    21.414930
         137      7  1027.916640    17.131944    22.842592
         138      7  1029.344302    18.559606    24.270254
         139      7  1027.916640    17.131944    25.697916
         140      7  1029.344302    18.559606    27.125578
         141      7  1027.916640    19.987268     0.000000
         142      7  1029.344302    21.414930     1.427662
         143      7  1027.916640    19.987268     2.855324
         144      7  1029.344302    21.414930     4.282986
         145      7  1027.916640    19.987268     5.710648
         146      7  1029.344302    21.414930     7.138310
         147      7  1027.916640    19.987268     8.565972
         148      7  1029.344302    21.414930     9.993634
         149      7  1027.916640    19.987268    11.421296
         150      7  1029.344302    21.414930    12.848958
         151      7  1027.916640    19.987268    14.276620
         152      7  1029.344302    21.414930    15.704282
         153      7  1027.916640    19.987268    17.131944
         154      7  1029.344302    21.414930    18.559606
         155      7  1027.916640    19.987268    19.987268
         156      7  1029.344302    21.414930    21.414930
         157      7  1027.916640    19.987268    22.842592
         158      7  1029.344302    21.414930    24.270254
         159      7  1027.916640    19.987268    25.697916
         160      7  1029.344302    21.414930    27.125578
         161      7  1027.916640    22.842592     0.000000
         162      7  1029.344302    24.270254     1.427662
         163      7  1027.916640    22.842592     2.855324
         164      7  1029.344302    24.270254     4.282986
         165      7  1027.916640    22.842592     5.710648
         166      7  1029.344302    24.270254     7.138310
         167      7  1027.916640    22.842592     8.565972
         168      7  1029.344302    24.270254     9.993634
         169      7  1027.916640    22.842592    11.421296
         170      7  1029.344302    24.270254    12.848958
         171      7  1027.916640    22.842592    14.276620
         172      7  1029.344302    24.270254    15.704282
         173      7  1027.916640    22.842592    17.131944
         174      7  1029.344302    24.270254    18.559606
         175      7  1027.916640    22.842592    19.987268
         176      7  1029.344302    24.270254    21.414930
         177      7  1027.916640    22.842592    22.842592
         178      7  1029.344302    24.270254    24.270254
         179      7  1027.916640    22.842592    25.697916
         180      7  1029.344302    24.270254    27.125578
         181      7  1027.916640    25.697916     0.000000
         182      7  1029.344302    27.125578     1.427662
         183      7  1027.916640    25.697916     2.855324
         184      7  1029.344302    27.125578     4.282986
         185      7  1027.916640    25.697916     5.710648
         186      7  1029.344302    27.125578     7.138310
         187      7  1027.916640    25.697916     8.565972
         188      7  1029.344302    27.125578     9.993634
         189      7  1027.916640    25.697916    11.421296
         190      7  1029.344302    27.125578    12.848958
         191      7  1027.916640    25.697916    14.276620
         192      7  1029.344302    27.125578    15.704282
         193      7  1027.916640    25.697916    17.131944
         194      7  1029.344302    27.125578    18.559606
         195      7  1027.916640    25.697916    19.987268
         196      7  1029.344302    27.125578    21.414930
         197      7  1027.916640    25.697916    22.842592
         198      7  1029.344302    27.125578    24.270254
         199      7  1027.916640    25.697916    25.697916
         200      7  1029.344302    27.125578    27.125578
         201      8  1199.236080     0.000000     0.000000
         202      8  1200.663742     1.427662     1.427662
         203      8  1199.236080     0.000000     2.855324
         204      8  1200.663742     1.427662     4.282986
         205      8  1199.236080     0.000000     5.710648
         206      8  1200.663742     1.427662     7.138310
         207      8  1199.236080     0.000000     8.565972
         208      8  1200.663742     1.427662     9.993634
         209      8  1199.236080     0.000000    11.421296
         210      8  1200.663742     1.427662    12.848958
         211      8  1199.236080     0.000000    14.276620
         212      8  1200.663742     1.427662    15.704282
         213      8  1199.236080     0.000000    17.131944
         214      8  1200.663742     1.427662    18.559606
         215      8  1199.236080     0.000000    19.987268
         216      8  1200.663742     1.427662    21.414930
         217      8  1199.236080     0.000000    22.842592
         218      8  1200.663742     1.427662    24.270254
         219      8  1199.236080     0.000000    25.697916
         220      8  1200.663742     1.427662    27.125578
         221      8  1199.236080     2.855324     0.000000
         222      8  1200.663742     4.282986     1.427662
         223      8  1199.236080     2.855324     2.855324
         224      8  1200.663742     4.282986     4.282986
         225      8  1199.236080     2.855324     5.710648
         226      8  1200.663742     4.282986     7.138310
         227      8  1199.236080     2.855324     8.565972
         228      8  1200.663742     4.282986     9.993634
         229      8  1199.236080     2.855324    11.421296
         230      8  1200.663742     4.282986    12.848958
         231      8  1199.236080     2.855324    14.276620
         232      8  1200.663742     4.282986    15.704282
         233      8  1199.236080     2.855324    17.131944
         234      8  1200.663742     4.282986    18.559606
         235      8  1199.236080     2.855324    19.987268
         236      8  1200.663742     4.282986    21.414930
         237      8  1199.236080     2.855324    22.842592
         238      8  1200.663742     4.282986    24.270254
         239      8  1199.236080     2.855324    25.697916
         240      8  1200.663742     4.282986    27.125578
         241      8  1199.236080     5.710648     0.000000
         242      8  1200.663742     7.138310     1.427662
         243      8  1199.236080     5.710648     2.855324
         244      8  1200.663742     7.138310     4.282986
         245      8  1199.236080     5.710648     5.710648
         246      8  1200.663742     7.138310     7.138310
         247      8  1199.236080     5.710648     8.565972
         248      8  1200.663742     7.138310     9.993634
         249      8  1199.236080     5.710648    11.421296
         250      8  1200.663742     7.138310    12.848958
         251      8  1199.236080     5.710648    14.276620
         252      8  1200.663742     7.138310    15.704282
         253      8  1199.236080     5.710648    17.131944
         254      8  1200.663742     7.138310    18.559606
         255      8  1199.236080     5.710648    19.987268
         256      8  1200.663742     7.138310    21.414930
         257      8  1199.236080     5.710648    22.842592
         258      8  1200.663742     7.138310    24.270254
         259      8  1199.236080     5.710648    25.697916
         260      8  1200.663742     7.138310    27.125578
         261      8  1199.236080     8.565972     0.000000
         262      8  1200.663742     9.993634     1.427662
         263      8  1199.236080     8.565972     2.855324
         264      8  1200.663742     9.993634     4.282986
         265      8  1199.236080     8.565972     5.710648
         266      8  1200.663742     9.993634     7.138310
         267      8  1199.236080     8.565972     8.565972
         268      8  1200.663742     9.993634     9.993634
         269      8  1199.236080     8.565972    11.421296
         270      8  1200.663742     9.993634    12.848958
         271      8  1199.236080     8.565972    14.276620
         272      8  1200.663742     9.993634    15.704282
         273      8  1199.236080     8.565972    17.131944
         274      8  1200.663742     9.993634    18.559606
         275      8  1199.236080     8.565972    19.987268
         276      8  1200.663742     9.993634    21.414930
         277      8  1199.236080     8.565972    22.842592
         278      8  1200.663742     9.993634    24.270254
         279      8  1199.236080     8.565972    25.697916
         280      8  1200.663742     9.993634    27.125578
         281      8  1199.236080    11.421296     0.000000
         282      8  1200.663742    12.848958     1.427662
         283      8  1199.236080    11.421296     2.855324
         284      8  1200.663742    12.848958     4.282986
         285      8  1199.236080    11.421296     5.710648
         286      8  1200.663742    12.848958     7.138310
         287      8  1199.236080    11.421296     8.565972
         288      8  1200.663742    12.848958     9.993634
         289      8  1199.236080    11.421296    11.421296
         290      8  1200.663742    12.848958    12.848958
         291      8  1199.236080    11.421296    14.276620
         292      8  1200.663742    12.848958    15.704282
         293      8  1199.236080    11.421296    17.131944
         294      8  1200.663742    12.848958    18.559606
         295      8  1199.236080    11.421296    19.987268
         296      8  1200.663742    12.848958    21.414930
         297      8  1199.236080    11.421296    22.842592
         298      8  1200.663742    12.848958    24.270254
         299      8  1199.236080    11.421296    25.697916
         300      8  1200.663742    12.848958    27.125578
         301      8  1199.236080    14.276620     0.000000
         302      8  1200.663742    15.704282     1.427662
         303      8  1199.236080    14.276620     2.855324
         304      8  1200.663742    15.704282     4.282986
         305      8  1199.236080    14.276620     5.710648
         306      8  1200.663742    15.704282     7.138310
         307      8  1199.236080    14.276620     8.565972
         308      8  1200.663742    15.704282     9.993634
         309      8  1199.236080    14.276620    11.421296
         310      8  1200.663742    15.704282    12.848958
         311      8  1199.236080    14.276620    14.276620
         312      8  1200.663742    15.704282    15.704282
         313      8  1199.236080    14.276620    17.131944
         314      8  1200.663742    15.704282    18.559606
         315      8  1199.236080    14.276620    19.987268
         316      8  1200.663742    15.704282    21.414930
         317      8  1199.236080    14.276620    22.842592
         318      8  1200.663742    15.704282    24.270254
         319      8  1199.236080    14.276620    25.697916
         320      8  1200.663742    15.704282    27.125578
         321      8  1199.236080    17.131944     0.000000
         322      8  1200.663742    18.559606     1.427662
         323      8  1199.236080    17.131944     2.855324
         324      8  1200.663742    18.559606     4.282986
         325      8  1199.236080    17.131944     5.710648
         326      8  1200.663742    18.559606     7.138310
         327      8  1199.236080    17.131944     8.565972
         328      8  1200.663742    18.559606     9.993634
         329      8  1199.236080    17.131944    11.421296
         330      8  1200.663742    18.559606    12.848958
         331      8  1199.236080    17.131944    14.276620
         332      8  1200.663742    18.559606    15.704282
         333      8  1199.236080    17.131944    17.131944
         334      8  1200.663742    18.559606    18.559606
         335      8  1199.236080    17.131944    19.987268
         336      8  1200.663742    18.559606    21.414930
         337      8  1199.236080    17.131944    22.842592
         338      8  1200.663742    18.559606    24.270254
         339      8  1199.236080    17.131944    25.697916
         340      8  1200.663742    18.559606    27.125578
         341      8  1199.236080    19.987268     0.000000
         342      8  1200.663742    21.414930     1.427662
         343      8  1199.236080    19.987268     2.855324
         344      8  1200.663742    21.414930     4.282986
         345      8  1199.236080    19.987268     5.710648
         346      8  1200.663742    21.414930     7.138310
         347      8  1199.236080    19.987268     8.565972
         348      8  1200.663742    21.414930     9.993634
         349      8  1199.236080    19.987268    11.421296
         350      8  1200.663742    21.414930    12.848958
         351      8  1199.236080    19.987268    14.276620
         352      8  1200.663742    21.414930    15.704282
         353      8  1199.236080    19.987268    17.131944
         354      8  1200.663742    21.414930    18.559606
         355      8  1199.236080    19.987268    19.987268
         356      8  1200.663742    21.414930    21.414930
         357      8  1199.236080    19.987268    22.842592
         358      8  1200.663742    21.414930    24.270254
         359      8  1199.236080    19.987268    25.697916
         360      8  1200.663742    21.414930    27.125578
         361      8  1199.236080    22.842592     0.000000
         362      8  1200.663742    24.270254     1.427662
         363      8  1199.236080    22.842592     2.855324
         364      8  1200.663742    24.270254     4.282986
         365      8  1199.236080    22.842592     5.710648
         366      8  1200.663742    24.270254     7.138310
         367      8  1199.236080    22.842592     8.565972
         368      8  1200.663742    24.270254     9.993634
         369      8  1199.236080    22.842592    11.421296
         370      8  1200.663742    24.270254    12.848958
         371      8  1199.236080    22.842592    14.276620
         372      8  1200.663742    24.270254    15.704282
         373      8  1199.236080    22.842592    17.131944
         374      8  1200.663742    24.270254    18.559606
         375      8  1199.236080    22.842592    19.987268
         376      8  1200.663742    24.270254    21.414930
         377      8  1199.236080    22.842592    22.842592
         378      8  1200.663742    24.270254    24.270254
         379      8  1199.236080    22.842592    25.697916
         380      8  1200.663742    24.270254    27.125578
         381      8  1199.236080    25.697916     0.000000
         382      8  1200.663742    27.125578     1.427662
         383      8  1199.236080    25.697916     2.855324
         384      8  1200.663742    27.125578     4.282986
         385      8  1199.236080    25.697916     5.710648
         386      8  1200.663742    27.125578     7.138310
         387      8  1199.236080    25.697916     8.565972
         388      8  1200.663742    27.125578     9.993634
         389      8  1199.236080    25.697916    11.421296
         390      8  1200.663742    27.125578    12.848958
         391      8  1199.236080    25.697916    14.276620
         392      8  1200.663742    27.125578    15.704282
         393      8  1199.236080    25.697916    17.131944
         394      8  1200.663742    27.125578    18.559606
         395      8  1199.236080    25.697916    19.987268
         396      8  1200.663742    27.125578    21.414930
         397      8  1199.236080    25.697916    22.842592
         398      8  1200.663742    27.125578    24.270254
         399      8  1199.236080    25.697916    25.697916
         400      8  1200.663742    27.125578    27.125578
         401      9  1370.555520     0.000000     0.000000
         402      9  1371.983182     1.427662     1.427662
         403      9  1370.555520     0.000000     2.855324
         404      9  1371.983182     1.427662     4.282986
         405      9  1370.555520     0.000000     5.710648
         406      9  1371.983182     1.427662     7.138310
         407      9  1370.555520     0.000000     8.565972
         408      9  1371.983182     1.427662     9.993634
         409      9  1370.555520     0.000000    11.421296
         410      9  1371.983182     1.427662    12.848958
         411      9  1370.555520     0.000000    14.276620
         412      9  1371.983182     1.427662    15.704282
         413      9  1370.555520     0.000000    17.131944
         414      9  1371.983182     1.427662    18.559606
         415      9  1370.555520     0.000000    19.987268
         416      9  1371.983182     1.427662    21.414930
         417      9  1370.555520     0.000000    22.842592
         418      9  1371.983182     1.427662    24.270254
         419      9  1370.555520     0.000000    25.697916
         420      9  1371.983182     1.427662    27.125578
         421      9  1370.555520     2.855324     0.000000
         422      9  1371.983182     4.282986     1.427662
         423      9  1370.555520     2.855324     2.855324
         424      9  1371.983182     4.282986     4.282986
         425      9  1370.555520     2.855324     5.710648
         426      9  1371.983182     4.282986     7.138310
         427      9  1370.555520     2.855324     8.565972
         428      9  1371.983182     4.282986     9.993634
         429      9  1370.555520     2.855324    11.421296
         430      9  1371.983182     4.282986    12.848958
         431      9  1370.555520     2.855324    14.276620
         432      9  1371.983182     4.282986    15.704282
         433      9  1370.555520     2.855324    17.131944
         434      9  1371.983182     4.282986    18.559606
         435      9  1370.555520     2.855324    19.987268
         436      9  1371.983182     4.282986    21.414930
         437      9  1370.555520     2.855324    22.842592
         438      9  1371.983182     4.282986    24.270254
         439      9  1370.555520     2.855324    25.697916
         440      9  1371.983182     4.282986    27.125578
         441      9  1370.555520     5.710648     0.000000
         442      9  1371.983182     7.138310     1.427662
         443      9  1370.555520     5.710648     2.855324
         444      9  1371.983182     7.138310     4.282986
         445      9  1370.555520     5.710648     5.710648
         446      9  1371.983182     7.138310     7.138310
         447      9  1370.555520     5.710648     8.565972
         448      9  1371.983182     7.138310     9.993634
         449      9  1370.555520     5.710648    11.421296
         450      9  1371.983182     7.138310    12.848958
         451      9  1370.555520     5.710648    14.276620
         452      9  1371.983182     7.138310    15.704282
         453      9  1370.555520     5.710648    17.131944
         454      9  1371.983182     7.138310    18.559606
         455      9  1370.555520     5.710648    19.987268
         456      9  1371.983182     7.138310    21.414930
         457      9  1370.555520     5.710648    22.842592
         458      9  1371.983182     7.138310    24.270254
         459      9  1370.555520     5.710648    25.697916
         460      9  1371.983182     7.138310    27.125578
         461      9  1370.555520     8.565972     0.000000
         462      9  1371.983182     9.993634     1.427662
         463      9  1370.555520     8.565972     2.855324
         464      9  1371.983182     9.993634     4.282986
         465      9  1370.555520     8.565972     5.710648
         466      9  1371.983182     9.993634     7.138310
         467      9  1370.555520     8.565972     8.565972
         468      9  1371.983182     9.993634     9.993634
         469      9  1370.555520     8.565972    11.421296
         470      9  1371.983182     9.993634    12.848958
         471      9  1370.555520     8.565972    14.276620
         472      9  1371.983182     9.993634    15.704282
         473      9  1370.555520     8.565972    17.131944
         474      9  1371.983182     9.993634    18.559606
         475      9  1370.555520     8.565972    19.987268
         476      9  1371.983182     9.993634    21.414930
         477      9  1370.555520     8.565972    22.842592
         478      9  1371.983182     9.993634    24.270254
         479      9  1370.555520     8.565972    25.697916
         480      9  1371.983182     9.993634    27.125578
         481      9  1370.555520    11.421296     0.000000
         482      9  1371.983182    12.848958     1.427662
         483      9  1370.555520    11.421296     2.855324
         484      9  1371.983182    12.848958     4.282986
         485      9  1370.555520    11.421296     5.710648
         486      9  1371.983182    12.848958     7.138310
         487      9  1370.555520    11.421296     8.565972
         488      9  1371.983182    12.848958     9.993634
         489      9  1370.555520    11.421296    11.421296
         490      9  1371.983182    12.848958    12.848958
         491      9  1370.555520    11.421296    14.276620
         492      9  1371.983182    12.848958    15.704282
         493      9  1370.555520    11.421296    17.131944
         494      9  1371.983182    12.848958    18.559606
         495      9  1370.555520    11.421296    19.987268
         496      9  1371.983182    12.848958    21.414930
         497      9  1370.555520    11.421296    22.842592
         498      9  1371.983182    12.848958    24.270254
         499      9  1370.555520    11.421296    25.697916
         500      9  1371.983182    12.848958    27.125578
         501      9  1370.555520    14.276620     0.000000
         502      9  1371.983182    15.704282     1.427662
         503      9  1370.555520    14.276620     2.855324
         504      9  1371.983182    15.704282     4.282986
         505      9  1370.555520    14.276620     5.710648
         506      9  1371.983182    15.704282     7.138310