LAMMPS (14 Dec 2021)
Reading data file ...
  orthogonal box = (-1427.662 0 0) to (8283.2949 28.55324 28.55324)
  64 by 1 by 1 MPI processor grid
  reading atoms ...
  480200 atoms
  read_data CPU = 1.110 seconds
200 atoms in group d1
200 atoms in group d2
200 atoms in group d3
200 atoms in group d4
200 atoms in group d5
200 atoms in group d6
200 atoms in group d7
200 atoms in group d8
200 atoms in group d9
200 atoms in group d10
200 atoms in group d11
200 atoms in group d12
200 atoms in group d13
200 atoms in group d14
200 atoms in group d15
200 atoms in group d16
200 atoms in group d17
200 atoms in group d18
200 atoms in group d19
200 atoms in group d20
200 atoms in group d21
200 atoms in group d22
200 atoms in group d23
200 atoms in group d24
200 atoms in group d25
200 atoms in group d26
200 atoms in group d27
200 atoms in group d28
200 atoms in group d29
200 atoms in group d30
200 atoms in group d31
WARNING: Using 'neigh_modify every 1 delay 0 check yes' setting during minimization (../min.cpp:187)
Neighbor list info ...
  update every 1 steps, delay 0 steps, check yes
  max neighbors/atom: 2000, page size: 100000
  master list distance cutoff = 7.6
  ghost atom cutoff = 7.6
  binsize = 3.8, bins = 2556 8 8
  1 neighbor lists, perpetual/occasional/extra = 1 0 0
  (1) pair eam/alloy, perpetual
      attributes: half, newton on
      pair build: half/bin/atomonly/newton
      stencil: half/bin/3d
      bin: standard
Setting up cg style minimization ...
  Unit style    : metal
  Current step  : 0
Per MPI rank memory allocation (min/avg/max) = 4.337 | 10.11 | 12.53 Mbytes
Step Temp E_pair E_mol TotEng Press 
       0            0   -1979411.1            0   -1979411.1   -21.827455 
       1            0   -1979411.6            0   -1979411.6   -25.700646 
       2            0   -1979411.6            0   -1979411.6   -26.541323 
       3            0   -1979411.6            0   -1979411.6   -26.225573 
       4            0   -1979411.6            0   -1979411.6   -26.409011 
       5            0   -1979411.6            0   -1979411.6   -26.671223 
       6            0   -1979411.6            0   -1979411.6   -26.763782 
       7            0   -1979411.6            0   -1979411.6   -26.808772 
       8            0   -1979411.6            0   -1979411.6   -26.846021 
       9            0   -1979411.6            0   -1979411.6   -26.893538 
      10            0   -1979411.6            0   -1979411.6     -26.9204 
      11            0   -1979411.6            0   -1979411.6    -26.93895 
      12            0   -1979411.6            0   -1979411.6   -26.955458 
      13            0   -1979411.6            0   -1979411.6   -26.974353 
      14            0   -1979411.6            0   -1979411.6   -26.987498 
      15            0   -1979411.6            0   -1979411.6    -26.99718 
      16            0   -1979411.6            0   -1979411.6   -27.006612 
      17            0   -1979411.6            0   -1979411.6   -27.016692 
      18            0   -1979411.6            0   -1979411.6   -27.024383 
      19            0   -1979411.6            0   -1979411.6   -27.024383 
Loop time of 1.74972 on 64 procs for 19 steps with 480200 atoms

99.9% CPU use with 64 MPI tasks x no OpenMP threads

Minimization stats:
  Stopping criterion = linesearch alpha is zero
  Energy initial, next-to-last, final = 
     -1979411.13416888  -1979411.64565733  -1979411.64565733
  Force two-norm initial, final = 3.5540487 0.0027141141
  Force max component initial, final = 0.19826945 9.9045233e-05
  Final line search alpha, max atom move = 0.0009765625 9.672386e-08
  Iterations, force evaluations = 19 57

MPI task timing breakdown:
Section |  min time  |  avg time  |  max time  |%varavg| %total
---------------------------------------------------------------
Pair    | 2.8011e-05 | 1.1968     | 1.704      |  68.8 | 68.40
Neigh   | 0          | 0          | 0          |   0.0 |  0.00
Comm    | 1.9557e-05 | 0.027198   | 0.47518    |  48.4 |  1.55
Output  | 0.0016849  | 0.0017587  | 0.0019714  |   0.1 |  0.10
Modify  | 0          | 0          | 0          |   0.0 |  0.00
Other   |            | 0.5239     |            |       | 29.94

Nlocal:        7503.12 ave       10700 max           0 min
Histogram: 18 0 0 0 0 2 0 0 0 44
Nghost:        12340.7 ave       17554 max           0 min
Histogram: 18 0 0 0 0 2 0 0 0 44
Neighs:         629997 ave      899115 max           0 min
Histogram: 18 0 0 0 0 2 0 0 0 44

Total # of neighbors = 40319800
Ave neighs/atom = 83.964598
Neighbor list builds = 0
Dangerous builds = 0
WARNING: Using 'neigh_modify every 1 delay 0 check yes' setting during minimization (../min.cpp:187)
Setting up cg style minimization ...
  Unit style    : metal
  Current step  : 19
WARNING: Energy due to 3 extra global DOFs will be included in minimizer energies
Per MPI rank memory allocation (min/avg/max) = 4.337 | 10.11 | 12.53 Mbytes
Step Temp E_pair E_mol TotEng Press Volume 
      19            0   -1979411.6            0   -1979411.6   -27.024383    7917221.9 
      20            0   -1979411.6            0   -1979411.6     10.81069    7916983.3 
      21            0   -1979411.7            0   -1979411.7   0.39689254    7917048.9 
      22            0   -1979411.7            0   -1979411.7  -0.30717835    7917053.4 
      23            0   -1979411.7            0   -1979411.7 0.0070757316    7917051.4 
      24            0   -1979411.7            0   -1979411.7 -0.018853668    7917051.6 
      25            0   -1979411.7            0   -1979411.7 -0.00010126512    7917051.5 
      26            0   -1979411.7            0   -1979411.7 -0.00010126501    7917051.5 
Loop time of 2.21314 on 64 procs for 7 steps with 480200 atoms

100.0% CPU use with 64 MPI tasks x no OpenMP threads

Minimization stats:
  Stopping criterion = linesearch alpha is zero
  Energy initial, next-to-last, final = 
     -1979411.64565728  -1979411.65128209  -1979411.65128231
  Force two-norm initial, final = 286.75578 0.0035163633
  Force max component initial, final = 202.73796 0.0010843464
  Final line search alpha, max atom move = 0.0009765625 1.058932e-06
  Iterations, force evaluations = 7 42

MPI task timing breakdown:
Section |  min time  |  avg time  |  max time  |%varavg| %total
---------------------------------------------------------------
Pair    | 2.0531e-05 | 0.91986    | 1.291      |  60.0 | 41.56
Neigh   | 0.00016041 | 0.5822     | 0.83822    |  48.3 | 26.31
Comm    | 0.00039638 | 0.028041   | 0.35919    |  35.6 |  1.27
Output  | 0.00047818 | 0.00048944 | 0.00053752 |   0.0 |  0.02
Modify  | 0          | 0          | 0          |   0.0 |  0.00
Other   |            | 0.6826     |            |       | 30.84

Nlocal:        7503.12 ave       10700 max           0 min
Histogram: 18 0 0 0 0 2 0 0 0 44
Nghost:        12340.7 ave       17554 max           0 min
Histogram: 18 0 0 0 0 2 0 0 0 44
Neighs:         629997 ave      899022 max           0 min
Histogram: 18 0 0 0 0 2 0 0 0 44

Total # of neighbors = 40319800
Ave neighs/atom = 83.964598
Neighbor list builds = 29
Dangerous builds = 27
WARNING: Using 'neigh_modify every 1 delay 0 check yes' setting during minimization (../min.cpp:187)
Setting up cg style minimization ...
  Unit style    : metal
  Current step  : 26
Per MPI rank memory allocation (min/avg/max) = 4.337 | 10.11 | 12.53 Mbytes
Step Temp E_pair E_mol TotEng Press 
      26            0   -1979411.7            0   -1979411.7 -0.00010126512 
      27            0   -1979411.7            0   -1979411.7 -0.00010126512 
Loop time of 0.66632 on 64 procs for 1 steps with 480200 atoms

99.8% CPU use with 64 MPI tasks x no OpenMP threads

Minimization stats:
  Stopping criterion = linesearch alpha is zero
  Energy initial, next-to-last, final = 
     -1979411.65128209  -1979411.65128209  -1979411.65128209
  Force two-norm initial, final = 0.0030931759 0.0030931759
  Force max component initial, final = 9.9060575e-05 9.9060575e-05
  Final line search alpha, max atom move = 0.0009765625 9.6738843e-08
  Iterations, force evaluations = 1 21

MPI task timing breakdown:
Section |  min time  |  avg time  |  max time  |%varavg| %total
---------------------------------------------------------------
Pair    | 9.72e-06   | 0.45755    | 0.65577    |  42.5 | 68.67
Neigh   | 0          | 0          | 0          |   0.0 |  0.00
Comm    | 7.64e-06   | 0.0095577  | 0.17891    |  31.3 |  1.43
Output  | 0          | 0          | 0          |   0.0 |  0.00
Modify  | 0          | 0          | 0          |   0.0 |  0.00
Other   |            | 0.1992     |            |       | 29.90

Nlocal:        7503.12 ave       10700 max           0 min
Histogram: 18 0 0 0 0 2 0 0 0 44
Nghost:        12340.7 ave       17554 max           0 min
Histogram: 18 0 0 0 0 2 0 0 0 44
Neighs:         629997 ave      899062 max           0 min
Histogram: 18 0 0 0 0 2 0 0 0 44

Total # of neighbors = 40319800
Ave neighs/atom = 83.964598
Neighbor list builds = 0
Dangerous builds = 0
Setting up Verlet run ...
  Unit style    : metal
  Current step  : 27
  Time step     : 0.001
0 0.598358946332285 171.925293146979 343.250414945867 514.575536744755 685.900658543642 857.22578034253 1028.55090214142 1199.87602394031 1371.20114573919 1542.52626753808 1713.85138933697 1885.17651113586 2056.50163293474 2227.82675473364 2399.15187653252 2570.47699833141 2741.80212013029 2913.12724192917 3084.45236372806 3255.77748552695 3427.10260732584 3598.42772912473 3769.75285092362 3941.07797272251 4112.4030945214 4283.72821632029 4455.05333811917 4626.37845991806 4797.70358171694 4969.02870351583 5140.35382531473
Per MPI rank memory allocation (min/avg/max) = 3.212 | 8.194 | 10.28 Mbytes
Step Temp E_pair E_mol TotEng Press 
      27            0   -1979411.7            0   -1979411.7 -0.00010126512 
Loop time of 7.44456e-06 on 64 procs for 0 steps with 480200 atoms

114.2% CPU use with 64 MPI tasks x no OpenMP threads

MPI task timing breakdown:
Section |  min time  |  avg time  |  max time  |%varavg| %total
---------------------------------------------------------------
Pair    | 0          | 0          | 0          |   0.0 |  0.00
Neigh   | 0          | 0          | 0          |   0.0 |  0.00
Comm    | 0          | 0          | 0          |   0.0 |  0.00
Output  | 0          | 0          | 0          |   0.0 |  0.00
Modify  | 0          | 0          | 0          |   0.0 |  0.00
Other   |            | 7.445e-06  |            |       |100.00

Nlocal:        7503.12 ave       10700 max           0 min
Histogram: 18 0 0 0 0 2 0 0 0 44
Nghost:        12340.7 ave       17554 max           0 min
Histogram: 18 0 0 0 0 2 0 0 0 44
Neighs:         629997 ave      899062 max           0 min
Histogram: 18 0 0 0 0 2 0 0 0 44

Total # of neighbors = 40319800
Ave neighs/atom = 83.964598
Neighbor list builds = 0
Dangerous builds = 0
ERROR: Compute used in variable between runs is not current (../variable.cpp:1368)
Last command: variable cellLength equal $(c_xMax) #angstrom
--------------------------------------------------------------------------
Primary job  terminated normally, but 1 process returned
a non-zero exit code. Per user-direction, the job has been aborted.
--------------------------------------------------------------------------
--------------------------------------------------------------------------
mpirun detected that one or more processes exited with non-zero status, thus causing
the job to be terminated. The first process to do so was:

  Process name: [[62388,1],23]
  Exit code:    1
--------------------------------------------------------------------------
