LAMMPS (14 Dec 2021)
Reading data file ...
  orthogonal box = (-1427.662 0 0) to (8283.2949 28.55324 28.55324)
  64 by 1 by 1 MPI processor grid
  reading atoms ...
  480200 atoms
  read_data CPU = 1.006 seconds
200 atoms in group d1
200 atoms in group d2
200 atoms in group d3
200 atoms in group d4
200 atoms in group d5
200 atoms in group d6
200 atoms in group d7
200 atoms in group d8
200 atoms in group d9
200 atoms in group d10
200 atoms in group d11
200 atoms in group d12
200 atoms in group d13
200 atoms in group d14
200 atoms in group d15
200 atoms in group d16
200 atoms in group d17
200 atoms in group d18
200 atoms in group d19
200 atoms in group d20
200 atoms in group d21
200 atoms in group d22
200 atoms in group d23
200 atoms in group d24
200 atoms in group d25
200 atoms in group d26
200 atoms in group d27
200 atoms in group d28
200 atoms in group d29
200 atoms in group d30
200 atoms in group d31
WARNING: Using 'neigh_modify every 1 delay 0 check yes' setting during minimization (../min.cpp:187)
Neighbor list info ...
  update every 1 steps, delay 0 steps, check yes
  max neighbors/atom: 2000, page size: 100000
  master list distance cutoff = 7.6
  ghost atom cutoff = 7.6
  binsize = 3.8, bins = 2556 8 8
  1 neighbor lists, perpetual/occasional/extra = 1 0 0
  (1) pair eam/alloy, perpetual
      attributes: half, newton on
      pair build: half/bin/atomonly/newton
      stencil: half/bin/3d
      bin: standard
Setting up cg style minimization ...
  Unit style    : metal
  Current step  : 0
Per MPI rank memory allocation (min/avg/max) = 4.337 | 10.11 | 12.53 Mbytes
Step Time Temp TotEng c_xMax 
       0            0            0   -1979411.1    6854.2053 
       1        0.001            0   -1979411.6    6854.2184 
       2        0.002            0   -1979411.6    6854.2209 
       3        0.003            0   -1979411.6    6854.2197 
       4        0.004            0   -1979411.6    6854.2202 
       5        0.005            0   -1979411.6    6854.2209 
       6        0.006            0   -1979411.6    6854.2212 
       7        0.007            0   -1979411.6    6854.2213 
       8        0.008            0   -1979411.6    6854.2214 
       9        0.009            0   -1979411.6    6854.2215 
      10         0.01            0   -1979411.6    6854.2216 
      11        0.011            0   -1979411.6    6854.2217 
      12        0.012            0   -1979411.6    6854.2217 
      13        0.013            0   -1979411.6    6854.2218 
      14        0.014            0   -1979411.6    6854.2218 
      15        0.015            0   -1979411.6    6854.2218 
      16        0.016            0   -1979411.6    6854.2218 
      17        0.017            0   -1979411.6    6854.2219 
      18        0.018            0   -1979411.6    6854.2219 
      19        0.019            0   -1979411.6    6854.2219 
Loop time of 1.7821 on 64 procs for 19 steps with 480200 atoms

100.0% CPU use with 64 MPI tasks x no OpenMP threads

Minimization stats:
  Stopping criterion = linesearch alpha is zero
  Energy initial, next-to-last, final = 
     -1979411.13416888  -1979411.64565733  -1979411.64565733
  Force two-norm initial, final = 3.5540487 0.0027141141
  Force max component initial, final = 0.19826945 9.9045233e-05
  Final line search alpha, max atom move = 0.0009765625 9.672386e-08
  Iterations, force evaluations = 19 57

MPI task timing breakdown:
Section |  min time  |  avg time  |  max time  |%varavg| %total
---------------------------------------------------------------
Pair    | 3.8898e-05 | 1.1859     | 1.7007     |  68.5 | 66.54
Neigh   | 0          | 0          | 0          |   0.0 |  0.00
Comm    | 2.4907e-05 | 0.030614   | 0.46239    |  44.3 |  1.72
Output  | 0.0018937  | 0.0020243  | 0.0025051  |   0.2 |  0.11
Modify  | 0          | 0          | 0          |   0.0 |  0.00
Other   |            | 0.5636     |            |       | 31.62

Nlocal:        7503.12 ave       10700 max           0 min
Histogram: 18 0 0 0 0 2 0 0 0 44
Nghost:        12340.7 ave       17554 max           0 min
Histogram: 18 0 0 0 0 2 0 0 0 44
Neighs:         629997 ave      899115 max           0 min
Histogram: 18 0 0 0 0 2 0 0 0 44

Total # of neighbors = 40319800
Ave neighs/atom = 83.964598
Neighbor list builds = 0
Dangerous builds = 0
WARNING: Using 'neigh_modify every 1 delay 0 check yes' setting during minimization (../min.cpp:187)
Setting up cg style minimization ...
  Unit style    : metal
  Current step  : 19
WARNING: Energy due to 3 extra global DOFs will be included in minimizer energies
Per MPI rank memory allocation (min/avg/max) = 4.337 | 10.11 | 12.53 Mbytes
Step Time Temp TotEng c_xMax 
      19        0.019            0   -1979411.6    6854.2219 
      20         0.02            0   -1979411.6    6854.2231 
      21        0.021            0   -1979411.7    6854.3322 
      22        0.022            0   -1979411.7    6854.3338 
      23        0.023            0   -1979411.7    6854.3355 
      24        0.024            0   -1979411.7    6854.3355 
      25        0.025            0   -1979411.7    6854.3355 
      26        0.026            0   -1979411.7    6854.3355 
Loop time of 2.26006 on 64 procs for 7 steps with 480200 atoms

100.0% CPU use with 64 MPI tasks x no OpenMP threads

Minimization stats:
  Stopping criterion = linesearch alpha is zero
  Energy initial, next-to-last, final = 
     -1979411.64565728  -1979411.65128209  -1979411.65128231
  Force two-norm initial, final = 286.75578 0.0035163633
  Force max component initial, final = 202.73796 0.0010843464
  Final line search alpha, max atom move = 0.0009765625 1.058932e-06
  Iterations, force evaluations = 7 42

MPI task timing breakdown:
Section |  min time  |  avg time  |  max time  |%varavg| %total
---------------------------------------------------------------
Pair    | 2.1493e-05 | 0.91376    | 1.3837     |  59.8 | 40.43
Neigh   | 0.00016229 | 0.57902    | 0.84079    |  48.2 | 25.62
Comm    | 0.00045742 | 0.033184   | 0.35697    |  35.1 |  1.47
Output  | 0.00055113 | 0.0005982  | 0.00070032 |   0.0 |  0.03
Modify  | 0          | 0          | 0          |   0.0 |  0.00
Other   |            | 0.7335     |            |       | 32.46

Nlocal:        7503.12 ave       10700 max           0 min
Histogram: 18 0 0 0 0 2 0 0 0 44
Nghost:        12340.7 ave       17554 max           0 min
Histogram: 18 0 0 0 0 2 0 0 0 44
Neighs:         629997 ave      899022 max           0 min
Histogram: 18 0 0 0 0 2 0 0 0 44

Total # of neighbors = 40319800
Ave neighs/atom = 83.964598
Neighbor list builds = 29
Dangerous builds = 27
WARNING: Using 'neigh_modify every 1 delay 0 check yes' setting during minimization (../min.cpp:187)
Setting up cg style minimization ...
  Unit style    : metal
  Current step  : 26
Per MPI rank memory allocation (min/avg/max) = 4.337 | 10.11 | 12.53 Mbytes
Step Time Temp TotEng c_xMax 
      26        0.026            0   -1979411.7    6854.3355 
      27        0.027            0   -1979411.7    6854.3355 
Loop time of 0.667186 on 64 procs for 1 steps with 480200 atoms

99.9% CPU use with 64 MPI tasks x no OpenMP threads

Minimization stats:
  Stopping criterion = linesearch alpha is zero
  Energy initial, next-to-last, final = 
     -1979411.65128209  -1979411.65128209  -1979411.65128209
  Force two-norm initial, final = 0.0030931759 0.0030931759
  Force max component initial, final = 9.9060575e-05 9.9060575e-05
  Final line search alpha, max atom move = 0.0009765625 9.6738843e-08
  Iterations, force evaluations = 1 21

MPI task timing breakdown:
Section |  min time  |  avg time  |  max time  |%varavg| %total
---------------------------------------------------------------
Pair    | 1.2056e-05 | 0.45689    | 0.6514     |  42.5 | 68.48
Neigh   | 0          | 0          | 0          |   0.0 |  0.00
Comm    | 8.837e-06  | 0.011262   | 0.17811    |  28.2 |  1.69
Output  | 0          | 0          | 0          |   0.0 |  0.00
Modify  | 0          | 0          | 0          |   0.0 |  0.00
Other   |            | 0.199      |            |       | 29.83

Nlocal:        7503.12 ave       10700 max           0 min
Histogram: 18 0 0 0 0 2 0 0 0 44
Nghost:        12340.7 ave       17554 max           0 min
Histogram: 18 0 0 0 0 2 0 0 0 44
Neighs:         629997 ave      899062 max           0 min
Histogram: 18 0 0 0 0 2 0 0 0 44

Total # of neighbors = 40319800
Ave neighs/atom = 83.964598
Neighbor list builds = 0
Dangerous builds = 0
WARNING: One or more atoms are time integrated more than once (../modify.cpp:281)
Setting up Verlet run ...
  Unit style    : metal
  Current step  : 27
  Time step     : 0.001
0 0.598358946332285 171.925293146979 343.250414945867 514.575536744755 685.900658543642 857.22578034253 1028.55090214142 1199.87602394031 1371.20114573919 1542.52626753808 1713.85138933697 1885.17651113586 2056.50163293474 2227.82675473364 2399.15187653252 2570.47699833141 2741.80212013029 2913.12724192917 3084.45236372806 3255.77748552695 3427.10260732584 3598.42772912473 3769.75285092362 3941.07797272251 4112.4030945214 4283.72821632029 4455.05333811917 4626.37845991806 4797.70358171694 4969.02870351583 5140.35382531473
Per MPI rank memory allocation (min/avg/max) = 3.587 | 8.832 | 11.03 Mbytes
Step Time Temp TotEng c_xMax 
      27            0            0   -1979411.7    6854.3355 
0.001 0.598610273479985 171.925293146979 343.250414945867 514.575536744755 685.900658543642 857.22578034253 1028.55090214142 1199.87602394031 1371.20114573919 1542.52626753808 1713.85138933697 1885.17651113586 2056.50163293474 2227.82675473364 2399.15187653252 2570.47699833141 2741.80212013029 2913.12724192917 3084.45236372806 3255.77748552695 3427.10260732584 3598.42772912473 3769.75285092362 3941.07797272251 4112.4030945214 4283.72821632029 4455.05333811917 4626.37845991806 4797.70358171694 4969.02870351583 5140.35382531473
      28        0.001 9.3120673e-05   -1979411.6    6854.3355 
0.002 0.598861599040167 171.925293146979 343.250414945867 514.575536744755 685.900658543642 857.22578034253 1028.55090214142 1199.87602394031 1371.20114573919 1542.52626753808 1713.85138933697 1885.17651113586 2056.50163293474 2227.82675473364 2399.15187653252 2570.47699833141 2741.80212013029 2913.12724192917 3084.45236372806 3255.77748552695 3427.10260732584 3598.42772912473 3769.75285092362 3941.07797272251 4112.4030945214 4283.72821632029 4455.05333811917 4626.37845991806 4797.70358171694 4969.02870351583 5140.35382531473
      29        0.002 9.2995027e-05   -1979411.6    6854.3355 
0.003 0.599112921425321 171.925293146979 343.250414945867 514.575536744755 685.900658543642 857.22578034253 1028.55090214142 1199.87602394031 1371.20114573919 1542.52626753808 1713.85138933697 1885.17651113586 2056.50163293474 2227.82675473364 2399.15187653252 2570.47699833141 2741.80212013029 2913.12724192917 3084.45236372806 3255.77748552695 3427.10260732584 3598.42772912473 3769.75285092362 3941.07797272251 4112.4030945214 4283.72821632029 4455.05333811917 4626.37845991806 4797.70358171694 4969.02870351583 5140.35382531473
      30        0.003 9.2871426e-05   -1979411.6    6854.3355 
0.004 0.599364239047959 171.925293146979 343.250414945867 514.575536744755 685.900658543642 857.22578034253 1028.55090214142 1199.87602394031 1371.20114573919 1542.52626753808 1713.85138933697 1885.17651113586 2056.50163293474 2227.82675473364 2399.15187653252 2570.47699833141 2741.80212013029 2913.12724192917 3084.45236372806 3255.77748552695 3427.10260732584 3598.42772912473 3769.75285092362 3941.07797272251 4112.4030945214 4283.72821632029 4455.05333811917 4626.37845991806 4797.70358171694 4969.02870351583 5140.35382531473
      31        0.004 9.275339e-05   -1979411.6    6854.3355 
0.005 0.599615550320621 171.925293146979 343.250414945867 514.575536744755 685.900658543642 857.22578034253 1028.55090214142 1199.87602394031 1371.20114573919 1542.52626753808 1713.85138933697 1885.17651113586 2056.50163293475 2227.82675473364 2399.15187653252 2570.47699833141 2741.80212013029 2913.12724192917 3084.45236372806 3255.77748552695 3427.10260732584 3598.42772912473 3769.75285092362 3941.07797272251 4112.4030945214 4283.72821632029 4455.05333811917 4626.37845991806 4797.70358171694 4969.02870351583 5140.35382531473
      32        0.005 9.2645778e-05   -1979411.6    6854.3355 
0.006 0.599866853655889 171.925293146979 343.250414945867 514.575536744755 685.900658543642 857.22578034253 1028.55090214142 1199.87602394031 1371.20114573919 1542.52626753808 1713.85138933697 1885.17651113586 2056.50163293474 2227.82675473364 2399.15187653252 2570.47699833141 2741.80212013029 2913.12724192917 3084.45236372806 3255.77748552695 3427.10260732584 3598.42772912473 3769.75285092362 3941.07797272251 4112.4030945214 4283.72821632029 4455.05333811917 4626.37845991806 4797.70358171694 4969.02870351583 5140.35382531473
      33        0.006 9.2554751e-05   -1979411.6    6854.3355 
0.007 0.600118147466395 171.925293146979 343.250414945867 514.575536744755 685.900658543642 857.22578034253 1028.55090214142 1199.87602394031 1371.20114573919 1542.52626753808 1713.85138933697 1885.17651113586 2056.50163293474 2227.82675473364 2399.15187653252 2570.47699833141 2741.80212013029 2913.12724192917 3084.45236372806 3255.77748552695 3427.10260732584 3598.42772912473 3769.75285092362 3941.07797272251 4112.4030945214 4283.72821632029 4455.05333811917 4626.37845991806 4797.70358171694 4969.02870351583 5140.35382531473
      34        0.007 9.2487727e-05   -1979411.6    6854.3355 
0.008 0.600369430164831 171.925293146979 343.250414945867 514.575536744755 685.900658543642 857.22578034253 1028.55090214142 1199.8760239403 1371.20114573919 1542.52626753808 1713.85138933697 1885.17651113586 2056.50163293474 2227.82675473364 2399.15187653252 2570.47699833141 2741.80212013029 2913.12724192917 3084.45236372806 3255.77748552695 3427.10260732584 3598.42772912473 3769.75285092362 3941.07797272251 4112.4030945214 4283.72821632029 4455.05333811917 4626.37845991806 4797.70358171694 4969.02870351583 5140.35382531473
      35        0.008 9.2453326e-05   -1979411.6    6854.3355 
0.009 0.600620700163959 171.925293146979 343.250414945867 514.575536744755 685.900658543642 857.22578034253 1028.55090214142 1199.8760239403 1371.20114573919 1542.52626753808 1713.85138933697 1885.17651113586 2056.50163293474 2227.82675473364 2399.15187653252 2570.47699833141 2741.80212013029 2913.12724192917 3084.45236372806 3255.77748552695 3427.10260732584 3598.42772912473 3769.75285092362 3941.07797272251 4112.4030945214 4283.72821632029 4455.05333811917 4626.37845991806 4797.70358171694 4969.02870351583 5140.35382531473
      36        0.009 9.2461307e-05   -1979411.6    6854.3355 
0.01 0.600871955876619 171.925293146979 343.250414945867 514.575536744755 685.900658543642 857.225780342531 1028.55090214142 1199.8760239403 1371.20114573919 1542.52626753808 1713.85138933697 1885.17651113586 2056.50163293474 2227.82675473364 2399.15187653252 2570.47699833141 2741.80212013029 2913.12724192917 3084.45236372806 3255.77748552695 3427.10260732584 3598.42772912473 3769.75285092362 3941.07797272251 4112.4030945214 4283.72821632029 4455.05333811917 4626.37845991806 4797.70358171694 4969.02870351583 5140.35382531473
      37         0.01 9.2522498e-05   -1979411.6    6854.3355 
0.011 0.601123195715746 171.925293146979 343.250414945867 514.575536744754 685.900658543642 857.225780342531 1028.55090214142 1199.8760239403 1371.20114573919 1542.52626753808 1713.85138933697 1885.17651113586 2056.50163293474 2227.82675473364 2399.15187653252 2570.47699833141 2741.80212013029 2913.12724192917 3084.45236372806 3255.77748552695 3427.10260732584 3598.42772912473 3769.75285092362 3941.07797272251 4112.4030945214 4283.72821632029 4455.05333811917 4626.37845991806 4797.70358171694 4969.02870351583 5140.35382531473
      38        0.011 9.2648714e-05   -1979411.6    6854.3355 
0.012 0.601374418094371 171.925293146979 343.250414945867 514.575536744754 685.900658543642 857.22578034253 1028.55090214142 1199.8760239403 1371.20114573919 1542.52626753808 1713.85138933697 1885.17651113586 2056.50163293474 2227.82675473364 2399.15187653252 2570.47699833141 2741.80212013029 2913.12724192917 3084.45236372806 3255.77748552695 3427.10260732584 3598.42772912473 3769.75285092362 3941.07797272251 4112.4030945214 4283.72821632029 4455.05333811917 4626.37845991806 4797.70358171694 4969.02870351583 5140.35382531473
      39        0.012 9.2852674e-05   -1979411.6    6854.3355 
0.013 0.601625621425638 171.925293146979 343.250414945867 514.575536744754 685.900658543642 857.22578034253 1028.55090214142 1199.8760239403 1371.20114573919 1542.52626753808 1713.85138933697 1885.17651113586 2056.50163293474 2227.82675473364 2399.15187653252 2570.47699833141 2741.80212013029 2913.12724192917 3084.45236372806 3255.77748552695 3427.10260732584 3598.42772912473 3769.75285092362 3941.07797272251 4112.4030945214 4283.72821632029 4455.05333811917 4626.37845991806 4797.70358171694 4969.02870351583 5140.35382531473
      40        0.013 9.3147908e-05   -1979411.6    6854.3355 
0.014 0.601876804122809 171.925293146979 343.250414945867 514.575536744754 685.900658543642 857.22578034253 1028.55090214142 1199.8760239403 1371.20114573919 1542.52626753808 1713.85138933697 1885.17651113586 2056.50163293474 2227.82675473364 2399.15187653252 2570.47699833141 2741.80212013029 2913.12724192917 3084.45236372806 3255.77748552695 3427.10260732584 3598.42772912473 3769.75285092362 3941.07797272251 4112.4030945214 4283.72821632029 4455.05333811917 4626.37845991806 4797.70358171694 4969.02870351583 5140.35382531473
      41        0.014 9.3548657e-05   -1979411.6    6854.3355 
0.015 0.602127964599279 171.925293146979 343.250414945867 514.575536744755 685.900658543642 857.22578034253 1028.55090214142 1199.87602394031 1371.20114573919 1542.52626753808 1713.85138933697 1885.17651113586 2056.50163293474 2227.82675473364 2399.15187653252 2570.47699833141 2741.80212013029 2913.12724192917 3084.45236372806 3255.77748552695 3427.10260732584 3598.42772912473 3769.75285092362 3941.07797272251 4112.4030945214 4283.72821632029 4455.05333811917 4626.37845991806 4797.70358171694 4969.02870351583 5140.35382531473
      42        0.015 9.4069776e-05   -1979411.6    6854.3355 
0.016 0.60237910126858 171.925293146979 343.250414945867 514.575536744755 685.900658543643 857.22578034253 1028.55090214142 1199.8760239403 1371.20114573919 1542.52626753808 1713.85138933697 1885.17651113586 2056.50163293474 2227.82675473364 2399.15187653252 2570.47699833141 2741.80212013029 2913.12724192917 3084.45236372806 3255.77748552695 3427.10260732584 3598.42772912473 3769.75285092362 3941.07797272251 4112.4030945214 4283.72821632029 4455.05333811917 4626.37845991806 4797.70358171694 4969.02870351583 5140.35382531473
      43        0.016 9.472662e-05   -1979411.6    6854.3355 
0.017 0.602630212544399 171.925293146979 343.250414945867 514.575536744755 685.900658543643 857.225780342529 1028.55090214142 1199.87602394031 1371.20114573919 1542.52626753808 1713.85138933697 1885.17651113586 2056.50163293474 2227.82675473364 2399.15187653252 2570.47699833141 2741.80212013029 2913.12724192917 3084.45236372806 3255.77748552695 3427.10260732584 3598.42772912473 3769.75285092362 3941.07797272251 4112.4030945214 4283.72821632029 4455.05333811917 4626.37845991806 4797.70358171694 4969.02870351583 5140.35382531473
      44        0.017 9.553494e-05   -1979411.6    6854.3355 
0.018 0.602881296840579 171.925293146979 343.250414945867 514.575536744755 685.900658543643 857.22578034253 1028.55090214142 1199.8760239403 1371.20114573919 1542.52626753808 1713.85138933697 1885.17651113586 2056.50163293474 2227.82675473364 2399.15187653252 2570.47699833141 2741.80212013029 2913.12724192917 3084.45236372806 3255.77748552695 3427.10260732584 3598.42772912473 3769.75285092362 3941.07797272251 4112.4030945214 4283.72821632029 4455.05333811917 4626.37845991806 4797.70358171694 4969.02870351583 5140.35382531473
      45        0.018 9.6510766e-05   -1979411.6    6854.3355 
0.019 0.603132352571135 171.925293146979 343.250414945867 514.575536744755 685.900658543643 857.22578034253 1028.55090214142 1199.87602394031 1371.20114573919 1542.52626753808 1713.85138933697 1885.17651113586 2056.50163293475 2227.82675473364 2399.15187653252 2570.47699833141 2741.80212013029 2913.12724192917 3084.45236372806 3255.77748552695 3427.10260732584 3598.42772912473 3769.75285092362 3941.07797272251 4112.4030945214 4283.72821632029 4455.05333811917 4626.37845991806 4797.70358171694 4969.02870351583 5140.35382531473
      46        0.019 9.7670293e-05   -1979411.6    6854.3355 
0.02 0.603383378150262 171.925293146979 343.250414945867 514.575536744755 685.900658543643 857.22578034253 1028.55090214142 1199.87602394031 1371.20114573919 1542.52626753808 1713.85138933697 1885.17651113586 2056.50163293475 2227.82675473364 2399.15187653252 2570.47699833141 2741.80212013029 2913.12724192917 3084.45236372806 3255.77748552695 3427.10260732584 3598.42772912473 3769.75285092362 3941.07797272251 4112.4030945214 4283.72821632029 4455.05333811917 4626.37845991806 4797.70358171694 4969.02870351583 5140.35382531473
      47         0.02 9.9029768e-05   -1979411.6    6854.3355 
0.021 0.603634371992348 171.925293146979 343.250414945867 514.575536744755 685.900658543643 857.22578034253 1028.55090214142 1199.8760239403 1371.20114573919 1542.52626753808 1713.85138933697 1885.17651113586 2056.50163293475 2227.82675473364 2399.15187653252 2570.47699833141 2741.80212013029 2913.12724192917 3084.45236372806 3255.77748552695 3427.10260732584 3598.42772912473 3769.75285092362 3941.07797272251 4112.4030945214 4283.72821632029 4455.05333811917 4626.37845991806 4797.70358171694 4969.02870351583 5140.35382531473
      48        0.021 0.00010060537   -1979411.6    6854.3355 
0.022 0.603885332511978 171.925293146979 343.250414945867 514.575536744754 685.900658543643 857.22578034253 1028.55090214142 1199.87602394031 1371.20114573919 1542.52626753808 1713.85138933697 1885.17651113586 2056.50163293475 2227.82675473364 2399.15187653252 2570.47699833141 2741.80212013029 2913.12724192917 3084.45236372806 3255.77748552695 3427.10260732584 3598.42772912473 3769.75285092362 3941.07797272251 4112.4030945214 4283.72821632029 4455.05333811917 4626.37845991806 4797.70358171694 4969.02870351583 5140.35382531473
      49        0.022 0.00010241311   -1979411.6    6854.3355 
0.023 0.604136258123949 171.925293146979 343.250414945867 514.575536744754 685.900658543643 857.22578034253 1028.55090214142 1199.87602394031 1371.20114573919 1542.52626753808 1713.85138933697 1885.17651113586 2056.50163293475 2227.82675473364 2399.15187653252 2570.47699833141 2741.80212013029 2913.12724192917 3084.45236372806 3255.77748552695 3427.10260732584 3598.42772912473 3769.75285092362 3941.07797272251 4112.4030945214 4283.72821632029 4455.05333811917 4626.37845991806 4797.70358171694 4969.02870351583 5140.35382531473
      50        0.023 0.00010446869   -1979411.6    6854.3355 
0.024 0.60438714724328 171.925293146979 343.250414945866 514.575536744754 685.900658543643 857.225780342529 1028.55090214142 1199.8760239403 1371.20114573919 1542.52626753808 1713.85138933697 1885.17651113586 2056.50163293475 2227.82675473364 2399.15187653252 2570.47699833141 2741.80212013029 2913.12724192917 3084.45236372806 3255.77748552695 3427.10260732584 3598.42772912473 3769.75285092362 3941.07797272251 4112.4030945214 4283.72821632029 4455.05333811917 4626.37845991806 4797.70358171694 4969.02870351583 5140.35382531473
      51        0.024 0.00010678741   -1979411.6    6854.3355 
0.025 0.604637998285217 171.925293146979 343.250414945866 514.575536744754 685.900658543643 857.225780342529 1028.55090214142 1199.8760239403 1371.20114573919 1542.52626753808 1713.85138933697 1885.17651113586 2056.50163293475 2227.82675473364 2399.15187653252 2570.47699833141 2741.80212013029 2913.12724192917 3084.45236372806 3255.77748552695 3427.10260732584 3598.42772912473 3769.75285092362 3941.07797272251 4112.4030945214 4283.72821632029 4455.05333811917 4626.37845991806 4797.70358171694 4969.02870351583 5140.35382531473
      52        0.025 0.00010938407   -1979411.6    6854.3355 
0.026 0.604888809665249 171.925293146979 343.250414945866 514.575536744754 685.900658543644 857.225780342528 1028.55090214142 1199.8760239403 1371.20114573919 1542.52626753808 1713.85138933697 1885.17651113586 2056.50163293475 2227.82675473364 2399.15187653252 2570.47699833141 2741.80212013029 2913.12724192917 3084.45236372806 3255.77748552695 3427.10260732584 3598.42772912473 3769.75285092362 3941.07797272251 4112.4030945214 4283.72821632029 4455.05333811917 4626.37845991806 4797.70358171694 4969.02870351583 5140.35382531473
      53        0.026 0.00011227285   -1979411.6    6854.3355 
0.027 0.605139579799116 171.925293146979 343.250414945866 514.575536744755 685.900658543644 857.225780342529 1028.55090214142 1199.87602394031 1371.20114573919 1542.52626753808 1713.85138933697 1885.17651113586 2056.50163293475 2227.82675473364 2399.15187653252 2570.47699833141 2741.80212013029 2913.12724192917 3084.45236372806 3255.77748552695 3427.10260732584 3598.42772912473 3769.75285092362 3941.07797272251 4112.4030945214 4283.72821632029 4455.05333811917 4626.37845991806 4797.70358171694 4969.02870351583 5140.35382531473
      54        0.027 0.00011546721   -1979411.6    6854.3355 
0.028 0.605390307102815 171.925293146979 343.250414945867 514.575536744754 685.900658543644 857.225780342529 1028.55090214142 1199.87602394031 1371.20114573919 1542.52626753808 1713.85138933697 1885.17651113586 2056.50163293475 2227.82675473364 2399.15187653252 2570.47699833141 2741.80212013029 2913.12724192917 3084.45236372806 3255.77748552695 3427.10260732584 3598.42772912473 3769.75285092362 3941.07797272251 4112.4030945214 4283.72821632029 4455.05333811917 4626.37845991806 4797.70358171694 4969.02870351583 5140.35382531473
      55        0.028 0.00011897981   -1979411.6    6854.3355 
0.029 0.60564098999262 171.925293146979 343.250414945867 514.575536744755 685.900658543643 857.22578034253 1028.55090214142 1199.8760239403 1371.20114573919 1542.52626753808 1713.85138933697 1885.17651113586 2056.50163293475 2227.82675473364 2399.15187653252 2570.47699833141 2741.80212013029 2913.12724192917 3084.45236372806 3255.77748552695 3427.10260732584 3598.42772912473 3769.75285092362 3941.07797272251 4112.4030945214 4283.72821632029 4455.05333811917 4626.37845991806 4797.70358171694 4969.02870351583 5140.35382531473
      56        0.029 0.00012282241   -1979411.6    6854.3355 
0.03 0.605891626885078 171.925293146979 343.250414945867 514.575536744754 685.900658543643 857.22578034253 1028.55090214142 1199.87602394031 1371.20114573919 1542.52626753808 1713.85138933697 1885.17651113586 2056.50163293475 2227.82675473364 2399.15187653252 2570.47699833141 2741.80212013029 2913.12724192917 3084.45236372806 3255.77748552695 3427.10260732584 3598.42772912473 3769.75285092362 3941.07797272251 4112.4030945214 4283.72821632029 4455.05333811917 4626.37845991806 4797.70358171694 4969.02870351583 5140.35382531473
      57         0.03 0.00012700579   -1979411.6    6854.3355 
0.031 0.606142216197033 171.925293146979 343.250414945867 514.575536744754 685.900658543643 857.22578034253 1028.55090214142 1199.87602394031 1371.20114573919 1542.52626753808 1713.85138933697 1885.17651113586 2056.50163293475 2227.82675473364 2399.15187653252 2570.47699833141 2741.8021201303 2913.12724192917 3084.45236372806 3255.77748552695 3427.10260732584 3598.42772912473 3769.75285092362 3941.07797272251 4112.4030945214 4283.72821632029 4455.05333811917 4626.37845991806 4797.70358171694 4969.02870351583 5140.35382531473
      58        0.031 0.00013153968   -1979411.6    6854.3355 
0.032 0.606392756345625 171.925293146979 343.250414945867 514.575536744755 685.900658543643 857.22578034253 1028.55090214142 1199.87602394031 1371.20114573919 1542.52626753808 1713.85138933697 1885.17651113586 2056.50163293475 2227.82675473364 2399.15187653252 2570.47699833141 2741.8021201303 2913.12724192917 3084.45236372806 3255.77748552695 3427.10260732584 3598.42772912473 3769.75285092362 3941.07797272251 4112.4030945214 4283.72821632029 4455.05333811917 4626.37845991806 4797.70358171694 4969.02870351583 5140.35382531473
      59        0.032 0.0001364327   -1979411.6    6854.3355 
0.033 0.606643245748306 171.925293146979 343.250414945867 514.575536744755 685.900658543643 857.22578034253 1028.55090214142 1199.87602394031 1371.20114573919 1542.52626753808 1713.85138933697 1885.17651113586 2056.50163293475 2227.82675473364 2399.15187653252 2570.47699833141 2741.8021201303 2913.12724192917 3084.45236372806 3255.77748552695 3427.10260732584 3598.42772912473 3769.75285092362 3941.07797272251 4112.4030945214 4283.72821632029 4455.05333811917 4626.37845991806 4797.70358171694 4969.02870351583 5140.35382531473
      60        0.033 0.00014169229   -1979411.6    6854.3355 
0.034 0.60689368282285 171.925293146979 343.250414945867 514.575536744755 685.900658543643 857.22578034253 1028.55090214142 1199.87602394031 1371.20114573919 1542.52626753808 1713.85138933697 1885.17651113586 2056.50163293475 2227.82675473364 2399.15187653252 2570.47699833141 2741.8021201303 2913.12724192917 3084.45236372806 3255.77748552695 3427.10260732584 3598.42772912473 3769.75285092362 3941.07797272251 4112.4030945214 4283.72821632029 4455.05333811917 4626.37845991806 4797.70358171694 4969.02870351583 5140.35382531473
      61        0.034 0.00014732464   -1979411.6    6854.3355 
0.035 0.607144065987359 171.925293146979 343.250414945867 514.575536744755 685.900658543643 857.22578034253 1028.55090214142 1199.87602394031 1371.20114573919 1542.52626753808 1713.85138933697 1885.17651113586 2056.50163293475 2227.82675473364 2399.15187653252 2570.47699833141 2741.8021201303 2913.12724192917 3084.45236372806 3255.77748552695 3427.10260732584 3598.42772912473 3769.75285092362 3941.07797272251 4112.4030945214 4283.72821632029 4455.05333811917 4626.37845991806 4797.70358171694 4969.02870351583 5140.35382531473
      62        0.035 0.00015333469   -1979411.6    6854.3355 
0.036 0.607394393660279 171.925293146979 343.250414945867 514.575536744755 685.900658543642 857.22578034253 1028.55090214142 1199.87602394031 1371.20114573919 1542.52626753808 1713.85138933697 1885.17651113586 2056.50163293475 2227.82675473364 2399.15187653252 2570.47699833141 2741.8021201303 2913.12724192917 3084.45236372806 3255.77748552695 3427.10260732584 3598.42772912473 3769.75285092362 3941.07797272251 4112.4030945214 4283.72821632029 4455.05333811917 4626.37845991806 4797.70358171694 4969.02870351583 5140.35382531473
      63        0.036 0.00015972608   -1979411.6    6854.3355 
0.037 0.607644664260402 171.925293146979 343.250414945867 514.575536744754 685.900658543642 857.22578034253 1028.55090214142 1199.87602394031 1371.20114573919 1542.52626753808 1713.85138933697 1885.17651113585 2056.50163293475 2227.82675473364 2399.15187653252 2570.47699833141 2741.8021201303 2913.12724192917 3084.45236372806 3255.77748552695 3427.10260732584 3598.42772912473 3769.75285092362 3941.07797272251 4112.4030945214 4283.72821632029 4455.05333811917 4626.37845991806 4797.70358171694 4969.02870351583 5140.35382531473
      64        0.037 0.0001665011   -1979411.6    6854.3355 
0.038 0.607894876206884 171.925293146979 343.250414945867 514.575536744754 685.900658543642 857.22578034253 1028.55090214142 1199.87602394031 1371.20114573919 1542.52626753808 1713.85138933697 1885.17651113586 2056.50163293474 2227.82675473364 2399.15187653252 2570.47699833141 2741.8021201303 2913.12724192917 3084.45236372806 3255.77748552695 3427.10260732584 3598.42772912473 3769.75285092362 3941.07797272251 4112.4030945214 4283.72821632029 4455.05333811917 4626.37845991806 4797.70358171694 4969.02870351583 5140.35382531473
      65        0.038 0.00017366072   -1979411.6    6854.3355 
0.039 0.60814502791925 171.925293146979 343.250414945867 514.575536744754 685.900658543642 857.22578034253 1028.55090214142 1199.87602394031 1371.20114573919 1542.52626753808 1713.85138933697 1885.17651113586 2056.50163293474 2227.82675473364 2399.15187653252 2570.47699833141 2741.8021201303 2913.12724192917 3084.45236372806 3255.77748552695 3427.10260732584 3598.42772912473 3769.75285092362 3941.07797272251 4112.4030945214 4283.72821632029 4455.05333811917 4626.37845991806 4797.70358171694 4969.02870351583 5140.35382531473
      66        0.039 0.00018120453   -1979411.6    6854.3355 
0.04 0.608395117817407 171.925293146979 343.250414945867 514.575536744754 685.900658543643 857.22578034253 1028.55090214142 1199.8760239403 1371.20114573919 1542.52626753808 1713.85138933697 1885.17651113585 2056.50163293474 2227.82675473364 2399.15187653252 2570.47699833141 2741.8021201303 2913.12724192917 3084.45236372806 3255.77748552695 3427.10260732584 3598.42772912473 3769.75285092362 3941.07797272251 4112.4030945214 4283.72821632029 4455.05333811917 4626.37845991806 4797.70358171694 4969.02870351583 5140.35382531473
      67         0.04 0.00018913079   -1979411.6    6854.3355 
0.041 0.60864514432165 171.925293146979 343.250414945867 514.575536744754 685.900658543643 857.22578034253 1028.55090214142 1199.8760239403 1371.20114573919 1542.52626753808 1713.85138933697 1885.17651113585 2056.50163293474 2227.82675473364 2399.15187653252 2570.47699833141 2741.8021201303 2913.12724192917 3084.45236372806 3255.77748552695 3427.10260732584 3598.42772912473 3769.75285092362 3941.07797272251 4112.4030945214 4283.72821632029 4455.05333811917 4626.37845991806 4797.70358171694 4969.02870351583 5140.35382531473
      68        0.041 0.00019743643   -1979411.6    6854.3355 
0.042 0.608895105852675 171.925293146979 343.250414945867 514.575536744754 685.900658543643 857.22578034253 1028.55090214142 1199.8760239403 1371.20114573919 1542.52626753808 1713.85138933697 1885.17651113586 2056.50163293474 2227.82675473364 2399.15187653252 2570.47699833141 2741.8021201303 2913.12724192917 3084.45236372806 3255.77748552695 3427.10260732584 3598.42772912473 3769.75285092362 3941.07797272251 4112.4030945214 4283.72821632029 4455.05333811917 4626.37845991806 4797.70358171694 4969.02870351583 5140.35382531473
      69        0.042 0.00020611702   -1979411.6    6854.3355 
0.043 0.609145000831591 171.925293146979 343.250414945867 514.575536744755 685.900658543643 857.22578034253 1028.55090214142 1199.87602394031 1371.20114573919 1542.52626753808 1713.85138933697 1885.17651113586 2056.50163293474 2227.82675473364 2399.15187653252 2570.47699833141 2741.8021201303 2913.12724192917 3084.45236372806 3255.77748552695 3427.10260732584 3598.42772912473 3769.75285092362 3941.07797272251 4112.4030945214 4283.72821632029 4455.05333811917 4626.37845991806 4797.70358171694 4969.02870351583 5140.35382531473
      70        0.043 0.00021516689   -1979411.6    6854.3355 
0.044 0.609394827679924 171.925293146979 343.250414945867 514.575536744755 685.900658543643 857.22578034253 1028.55090214142 1199.87602394031 1371.20114573919 1542.52626753808 1713.85138933697 1885.17651113585 2056.50163293474 2227.82675473364 2399.15187653252 2570.47699833141 2741.8021201303 2913.12724192917 3084.45236372806 3255.77748552695 3427.10260732584 3598.42772912473 3769.75285092362 3941.07797272251 4112.4030945214 4283.72821632029 4455.05333811917 4626.37845991806 4797.70358171694 4969.02870351583 5140.35382531473
      71        0.044 0.00022457907   -1979411.6    6854.3355 
0.045 0.609644584819634 171.925293146979 343.250414945867 514.575536744755 685.900658543642 857.22578034253 1028.55090214142 1199.87602394031 1371.20114573919 1542.52626753808 1713.85138933697 1885.17651113586 2056.50163293474 2227.82675473364 2399.15187653252 2570.47699833141 2741.8021201303 2913.12724192917 3084.45236372806 3255.77748552695 3427.10260732584 3598.42772912473 3769.75285092362 3941.07797272251 4112.4030945214 4283.72821632029 4455.05333811917 4626.37845991806 4797.70358171694 4969.02870351583 5140.35382531473
      72        0.045 0.0002343454   -1979411.6    6854.3355 
0.046 0.609894270673117 171.925293146979 343.250414945867 514.575536744755 685.900658543643 857.22578034253 1028.55090214142 1199.87602394031 1371.20114573919 1542.52626753808 1713.85138933697 1885.17651113586 2056.50163293474 2227.82675473364 2399.15187653252 2570.47699833141 2741.8021201303 2913.12724192917 3084.45236372806 3255.77748552695 3427.10260732584 3598.42772912473 3769.75285092362 3941.07797272251 4112.4030945214 4283.72821632029 4455.05333811917 4626.37845991806 4797.70358171694 4969.02870351583 5140.35382531473
      73        0.046 0.00024445657   -1979411.6    6854.3355 
0.047 0.610143883663221 171.925293146979 343.250414945867 514.575536744755 685.900658543643 857.22578034253 1028.55090214142 1199.87602394031 1371.20114573919 1542.52626753808 1713.85138933697 1885.17651113586 2056.50163293474 2227.82675473364 2399.15187653252 2570.47699833141 2741.8021201303 2913.12724192917 3084.45236372806 3255.77748552695 3427.10260732584 3598.42772912473 3769.75285092362 3941.07797272251 4112.4030945214 4283.72821632029 4455.05333811917 4626.37845991806 4797.70358171694 4969.02870351583 5140.35382531473
      74        0.047 0.00025490213   -1979411.6    6854.3355 
0.048 0.610393422213256 171.925293146979 343.250414945867 514.575536744755 685.900658543643 857.225780342529 1028.55090214142 1199.87602394031 1371.20114573919 1542.52626753808 1713.85138933697 1885.17651113586 2056.50163293474 2227.82675473364 2399.15187653252 2570.47699833141 2741.8021201303 2913.12724192917 3084.45236372806 3255.77748552695 3427.10260732584 3598.42772912473 3769.75285092362 3941.07797272251 4112.4030945214 4283.72821632029 4455.05333811917 4626.37845991806 4797.70358171694 4969.02870351583 5140.35382531473
      75        0.048 0.00026567062   -1979411.6    6854.3355 
0.049 0.610642884747002 171.925293146979 343.250414945867 514.575536744755 685.900658543643 857.22578034253 1028.55090214142 1199.87602394031 1371.20114573919 1542.52626753808 1713.85138933697 1885.17651113586 2056.50163293474 2227.82675473364 2399.15187653252 2570.47699833141 2741.8021201303 2913.12724192917 3084.45236372806 3255.77748552695 3427.10260732584 3598.42772912473 3769.75285092362 3941.07797272251 4112.4030945214 4283.72821632029 4455.05333811917 4626.37845991806 4797.70358171694 4969.02870351583 5140.35382531473
      76        0.049 0.00027674959   -1979411.6    6854.3355 
0.05 0.610892269688716 171.925293146979 343.250414945867 514.575536744755 685.900658543643 857.22578034253 1028.55090214142 1199.87602394031 1371.20114573919 1542.52626753808 1713.85138933697 1885.17651113586 2056.50163293474 2227.82675473364 2399.15187653252 2570.47699833141 2741.8021201303 2913.12724192917 3084.45236372806 3255.77748552695 3427.10260732584 3598.42772912473 3769.75285092362 3941.07797272251 4112.4030945214 4283.72821632029 4455.05333811917 4626.37845991806 4797.70358171694 4969.02870351583 5140.35382531473
      77         0.05 0.00028812571   -1979411.6    6854.3355 
0.051 0.611141575463148 171.925293146979 343.250414945867 514.575536744755 685.900658543643 857.225780342529 1028.55090214142 1199.87602394031 1371.20114573919 1542.52626753808 1713.85138933697 1885.17651113586 2056.50163293474 2227.82675473364 2399.15187653252 2570.47699833141 2741.8021201303 2913.12724192917 3084.45236372806 3255.77748552695 3427.10260732584 3598.42772912473 3769.75285092362 3941.07797272251 4112.4030945214 4283.72821632029 4455.05333811917 4626.37845991806 4797.70358171694 4969.02870351583 5140.35382531473
      78        0.051 0.00029978483   -1979411.6    6854.3355 
0.052 0.611390800495547 171.925293146979 343.250414945867 514.575536744755 685.900658543643 857.22578034253 1028.55090214142 1199.87602394031 1371.20114573919 1542.52626753808 1713.85138933697 1885.17651113586 2056.50163293474 2227.82675473364 2399.15187653252 2570.47699833141 2741.8021201303 2913.12724192917 3084.45236372806 3255.77748552695 3427.10260732584 3598.42772912473 3769.75285092362 3941.07797272251 4112.4030945214 4283.72821632029 4455.05333811917 4626.37845991806 4797.70358171694 4969.02870351583 5140.35382531473
      79        0.052 0.00031171206   -1979411.6    6854.3355 
0.053 0.611639943211672 171.925293146979 343.250414945867 514.575536744755 685.900658543642 857.225780342529 1028.55090214142 1199.87602394031 1371.20114573919 1542.52626753808 1713.85138933697 1885.17651113586 2056.50163293474 2227.82675473364 2399.15187653252 2570.47699833141 2741.8021201303 2913.12724192917 3084.45236372806 3255.77748552695 3427.10260732584 3598.42772912473 3769.75285092362 3941.07797272251 4112.4030945214 4283.72821632029 4455.05333811917 4626.37845991806 4797.70358171694 4969.02870351583 5140.35382531473
      80        0.053 0.00032389186   -1979411.6    6854.3355 
0.054 0.611889002037803 171.925293146979 343.250414945867 514.575536744755 685.900658543643 857.225780342529 1028.55090214142 1199.87602394031 1371.20114573919 1542.52626753808 1713.85138933697 1885.17651113586 2056.50163293474 2227.82675473364 2399.15187653252 2570.47699833141 2741.8021201303 2913.12724192917 3084.45236372806 3255.77748552695 3427.10260732584 3598.42772912473 3769.75285092362 3941.07797272251 4112.4030945214 4283.72821632029 4455.05333811917 4626.37845991806 4797.70358171694 4969.02870351583 5140.35382531473
      81        0.054 0.00033630814   -1979411.6    6854.3355 
0.055 0.612137975400749 171.925293146979 343.250414945867 514.575536744755 685.900658543643 857.22578034253 1028.55090214142 1199.87602394031 1371.20114573919 1542.52626753808 1713.85138933697 1885.17651113586 2056.50163293474 2227.82675473364 2399.15187653252 2570.47699833141 2741.8021201303 2913.12724192917 3084.45236372806 3255.77748552695 3427.10260732584 3598.42772912473 3769.75285092362 3941.07797272251 4112.4030945214 4283.72821632029 4455.05333811917 4626.37845991806 4797.70358171694 4969.02870351583 5140.35382531473
      82        0.055 0.00034894433   -1979411.6    6854.3355 
0.056 0.612386861727859 171.925293146979 343.250414945867 514.575536744755 685.900658543643 857.22578034253 1028.55090214142 1199.87602394031 1371.20114573919 1542.52626753808 1713.85138933697 1885.17651113586 2056.50163293474 2227.82675473364 2399.15187653252 2570.47699833141 2741.8021201303 2913.12724192917 3084.45236372806 3255.77748552695 3427.10260732584 3598.42772912473 3769.75285092362 3941.07797272251 4112.4030945214 4283.72821632029 4455.05333811917 4626.37845991806 4797.70358171694 4969.02870351583 5140.35382531473
      83        0.056 0.00036178351   -1979411.6    6854.3355 
0.057 0.61263565944703 171.925293146979 343.250414945867 514.575536744755 685.900658543643 857.22578034253 1028.55090214142 1199.87602394031 1371.20114573919 1542.52626753808 1713.85138933697 1885.17651113586 2056.50163293474 2227.82675473364 2399.15187653252 2570.47699833141 2741.8021201303 2913.12724192917 3084.45236372806 3255.77748552695 3427.10260732584 3598.42772912473 3769.75285092362 3941.07797272251 4112.4030945214 4283.72821632029 4455.05333811917 4626.37845991806 4797.70358171694 4969.02870351583 5140.35382531473
      84        0.057 0.00037480846   -1979411.6    6854.3355 
0.058 0.612884366986722 171.925293146979 343.250414945867 514.575536744755 685.900658543643 857.22578034253 1028.55090214142 1199.87602394031 1371.20114573919 1542.52626753808 1713.85138933697 1885.17651113585 2056.50163293474 2227.82675473364 2399.15187653252 2570.47699833141 2741.8021201303 2913.12724192917 3084.45236372806 3255.77748552695 3427.10260732584 3598.42772912473 3769.75285092362 3941.07797272251 4112.4030945214 4283.72821632029 4455.05333811917 4626.37845991806 4797.70358171694 4969.02870351583 5140.35382531473
      85        0.058 0.00038800177   -1979411.6    6854.3355 
0.059 0.613132982775963 171.925293146979 343.250414945867 514.575536744755 685.900658543643 857.22578034253 1028.55090214142 1199.8760239403 1371.20114573919 1542.52626753808 1713.85138933697 1885.17651113586 2056.50163293474 2227.82675473364 2399.15187653252 2570.47699833141 2741.8021201303 2913.12724192917 3084.45236372806 3255.77748552695 3427.10260732584 3598.42772912473 3769.75285092362 3941.07797272251 4112.4030945214 4283.72821632029 4455.05333811917 4626.37845991806 4797.70358171694 4969.02870351583 5140.35382531473
      86        0.059 0.00040134594   -1979411.6    6854.3355 
0.06 0.613381505244361 171.925293146979 343.250414945867 514.575536744755 685.900658543643 857.22578034253 1028.55090214142 1199.87602394031 1371.20114573919 1542.52626753808 1713.85138933697 1885.17651113585 2056.50163293474 2227.82675473364 2399.15187653252 2570.47699833141 2741.8021201303 2913.12724192917 3084.45236372806 3255.77748552695 3427.10260732584 3598.42772912473 3769.75285092362 3941.07797272251 4112.4030945214 4283.72821632029 4455.05333811917 4626.37845991806 4797.70358171694 4969.02870351583 5140.35382531473
      87         0.06 0.00041482345   -1979411.6    6854.3355 
0.061 0.613629932822112 171.925293146979 343.250414945867 514.575536744755 685.900658543643 857.22578034253 1028.55090214142 1199.87602394031 1371.20114573919 1542.52626753808 1713.85138933697 1885.17651113586 2056.50163293474 2227.82675473364 2399.15187653252 2570.47699833141 2741.8021201303 2913.12724192917 3084.45236372806 3255.77748552695 3427.10260732584 3598.42772912473 3769.75285092362 3941.07797272251 4112.4030945214 4283.72821632029 4455.05333811917 4626.37845991806 4797.70358171694 4969.02870351583 5140.35382531473
      88        0.061 0.00042841687   -1979411.6    6854.3355 
0.062 0.613878263940012 171.925293146979 343.250414945867 514.575536744755 685.900658543643 857.22578034253 1028.55090214142 1199.87602394031 1371.20114573919 1542.52626753808 1713.85138933697 1885.17651113586 2056.50163293474 2227.82675473364 2399.15187653252 2570.47699833141 2741.8021201303 2913.12724192917 3084.45236372806 3255.77748552695 3427.10260732584 3598.42772912473 3769.75285092362 3941.07797272251 4112.4030945214 4283.72821632029 4455.05333811917 4626.37845991806 4797.70358171694 4969.02870351583 5140.35382531473
      89        0.062 0.00044210895   -1979411.6    6854.3355 
0.063 0.614126497029467 171.925293146979 343.250414945867 514.575536744754 685.900658543643 857.22578034253 1028.55090214142 1199.87602394031 1371.20114573919 1542.52626753808 1713.85138933697 1885.17651113586 2056.50163293474 2227.82675473364 2399.15187653252 2570.47699833141 2741.8021201303 2913.12724192917 3084.45236372806 3255.77748552695 3427.10260732584 3598.42772912473 3769.75285092362 3941.07797272251 4112.4030945214 4283.72821632029 4455.05333811917 4626.37845991806 4797.70358171694 4969.02870351583 5140.35382531473
      90        0.063 0.00045588267   -1979411.6    6854.3355 
0.064 0.614374630522503 171.925293146979 343.250414945867 514.575536744754 685.900658543642 857.22578034253 1028.55090214142 1199.87602394031 1371.20114573919 1542.52626753808 1713.85138933697 1885.17651113586 2056.50163293474 2227.82675473364 2399.15187653252 2570.47699833141 2741.8021201303 2913.12724192917 3084.45236372806 3255.77748552695 3427.10260732584 3598.42772912473 3769.75285092362 3941.07797272251 4112.4030945214 4283.72821632029 4455.05333811917 4626.37845991806 4797.70358171694 4969.02870351583 5140.35382531473
      91        0.064 0.00046972135   -1979411.6    6854.3355 
0.065 0.614622662851773 171.925293146979 343.250414945867 514.575536744754 685.900658543642 857.22578034253 1028.55090214142 1199.87602394031 1371.20114573919 1542.52626753808 1713.85138933697 1885.17651113586 2056.50163293474 2227.82675473364 2399.15187653252 2570.47699833141 2741.8021201303 2913.12724192917 3084.45236372806 3255.77748552695 3427.10260732584 3598.42772912473 3769.75285092362 3941.07797272251 4112.4030945214 4283.72821632029 4455.05333811917 4626.37845991806 4797.70358171694 4969.02870351583 5140.35382531473
      92        0.065 0.0004836087   -1979411.6    6854.3355 
0.066 0.614870592450571 171.925293146979 343.250414945867 514.575536744755 685.900658543642 857.22578034253 1028.55090214142 1199.87602394031 1371.20114573919 1542.52626753808 1713.85138933697 1885.17651113586 2056.50163293474 2227.82675473364 2399.15187653252 2570.47699833141 2741.8021201303 2913.12724192917 3084.45236372806 3255.77748552695 3427.10260732584 3598.42772912473 3769.75285092362 3941.07797272251 4112.4030945214 4283.72821632029 4455.05333811917 4626.37845991806 4797.70358171694 4969.02870351583 5140.35382531473
      93        0.066 0.00049752894   -1979411.6    6854.3355 
0.067 0.615118417752838 171.925293146979 343.250414945867 514.575536744755 685.900658543642 857.22578034253 1028.55090214142 1199.87602394031 1371.20114573919 1542.52626753808 1713.85138933697 1885.17651113586 2056.50163293474 2227.82675473364 2399.15187653252 2570.47699833141 2741.8021201303 2913.12724192917 3084.45236372806 3255.77748552695 3427.10260732584 3598.42772912473 3769.75285092362 3941.07797272251 4112.4030945214 4283.72821632029 4455.05333811917 4626.37845991806 4797.70358171694 4969.02870351583 5140.35382531473
      94        0.067 0.00051146679   -1979411.6    6854.3355 
0.068 0.615366137193174 171.925293146979 343.250414945867 514.575536744755 685.900658543642 857.22578034253 1028.55090214142 1199.87602394031 1371.20114573919 1542.52626753808 1713.85138933697 1885.17651113586 2056.50163293474 2227.82675473364 2399.15187653252 2570.47699833141 2741.8021201303 2913.12724192917 3084.45236372806 3255.77748552695 3427.10260732584 3598.42772912473 3769.75285092362 3941.07797272251 4112.4030945214 4283.72821632029 4455.05333811917 4626.37845991806 4797.70358171694 4969.02870351583 5140.35382531473
      95        0.068 0.00052540758   -1979411.6    6854.3355 
0.069 0.61561374920685 171.925293146979 343.250414945867 514.575536744755 685.900658543642 857.22578034253 1028.55090214142 1199.87602394031 1371.20114573919 1542.52626753808 1713.85138933697 1885.17651113586 2056.50163293474 2227.82675473364 2399.15187653252 2570.47699833141 2741.8021201303 2913.12724192917 3084.45236372806 3255.77748552695 3427.10260732584 3598.42772912473 3769.75285092362 3941.07797272251 4112.4030945214 4283.72821632029 4455.05333811917 4626.37845991806 4797.70358171694 4969.02870351583 5140.35382531473
      96        0.069 0.00053933732   -1979411.6    6854.3355 
0.07 0.615861252229813 171.925293146979 343.250414945867 514.575536744755 685.900658543642 857.22578034253 1028.55090214142 1199.87602394031 1371.20114573919 1542.52626753808 1713.85138933697 1885.17651113586 2056.50163293475 2227.82675473364 2399.15187653252 2570.47699833141 2741.8021201303 2913.12724192917 3084.45236372806 3255.77748552695 3427.10260732584 3598.42772912473 3769.75285092362 3941.07797272251 4112.4030945214 4283.72821632029 4455.05333811917 4626.37845991806 4797.70358171694 4969.02870351583 5140.35382531473
      97         0.07 0.0005532427   -1979411.6    6854.3355 
0.071 0.6161086446987 171.925293146979 343.250414945867 514.575536744755 685.900658543642 857.22578034253 1028.55090214142 1199.87602394031 1371.20114573919 1542.52626753808 1713.85138933697 1885.17651113586 2056.50163293475 2227.82675473364 2399.15187653252 2570.47699833141 2741.8021201303 2913.12724192917 3084.45236372806 3255.77748552695 3427.10260732584 3598.42772912473 3769.75285092362 3941.07797272251 4112.4030945214 4283.72821632029 4455.05333811917 4626.37845991806 4797.70358171694 4969.02870351583 5140.35382531473
      98        0.071 0.00056711116   -1979411.6    6854.3355 
0.072 0.616355925050844 171.925293146979 343.250414945867 514.575536744755 685.900658543642 857.22578034253 1028.55090214142 1199.87602394031 1371.20114573919 1542.52626753808 1713.85138933697 1885.17651113586 2056.50163293475 2227.82675473364 2399.15187653252 2570.47699833141 2741.8021201303 2913.12724192917 3084.45236372806 3255.77748552695 3427.10260732584 3598.42772912473 3769.75285092362 3941.07797272251 4112.4030945214 4283.72821632029 4455.05333811917 4626.37845991806 4797.70358171694 4969.02870351583 5140.35382531473
      99        0.072 0.00058093092   -1979411.6    6854.3355 
0.073 0.616603091724291 171.925293146979 343.250414945867 514.575536744755 685.900658543643 857.22578034253 1028.55090214142 1199.87602394031 1371.20114573919 1542.52626753808 1713.85138933697 1885.17651113586 2056.50163293475 2227.82675473364 2399.15187653252 2570.47699833141 2741.8021201303 2913.12724192917 3084.45236372806 3255.77748552695 3427.10260732584 3598.42772912473 3769.75285092362 3941.07797272251 4112.4030945214 4283.72821632029 4455.05333811917 4626.37845991806 4797.70358171694 4969.02870351583 5140.35382531473
     100        0.073 0.00059469102   -1979411.6    6854.3355 
0.074 0.616850143157799 171.925293146979 343.250414945867 514.575536744755 685.900658543643 857.22578034253 1028.55090214142 1199.87602394031 1371.20114573919 1542.52626753808 1713.85138933697 1885.17651113586 2056.50163293475 2227.82675473364 2399.15187653252 2570.47699833141 2741.8021201303 2913.12724192917 3084.45236372806 3255.77748552695 3427.10260732584 3598.42772912473 3769.75285092362 3941.07797272251 4112.4030945214 4283.72821632029 4455.05333811917 4626.37845991806 4797.70358171694 4969.02870351583 5140.35382531473
     101        0.074 0.00060838133   -1979411.6    6854.3355 
0.075 0.617097077790858 171.925293146979 343.250414945867 514.575536744754 685.900658543643 857.22578034253 1028.55090214142 1199.8760239403 1371.20114573919 1542.52626753808 1713.85138933697 1885.17651113586 2056.50163293475 2227.82675473364 2399.15187653252 2570.47699833141 2741.8021201303 2913.12724192917 3084.45236372806 3255.77748552695 3427.10260732584 3598.42772912473 3769.75285092362 3941.07797272251 4112.4030945214 4283.72821632029 4455.05333811917 4626.37845991806 4797.70358171694 4969.02870351583 5140.35382531473
     102        0.075 0.00062199258   -1979411.6    6854.3355 
0.076 0.617343894063694 171.925293146979 343.250414945867 514.575536744754 685.900658543643 857.22578034253 1028.55090214142 1199.8760239403 1371.20114573919 1542.52626753808 1713.85138933697 1885.17651113586 2056.50163293475 2227.82675473364 2399.15187653252 2570.47699833141 2741.8021201303 2913.12724192917 3084.45236372806 3255.77748552695 3427.10260732584 3598.42772912473 3769.75285092362 3941.07797272251 4112.4030945214 4283.72821632029 4455.05333811917 4626.37845991806 4797.70358171694 4969.02870351583 5140.35382531473
     103        0.076 0.00063551636   -1979411.6    6854.3355 
0.077 0.617590590417284 171.925293146979 343.250414945867 514.575536744754 685.900658543643 857.225780342529 1028.55090214142 1199.8760239403 1371.20114573919 1542.52626753808 1713.85138933697 1885.17651113586 2056.50163293475 2227.82675473364 2399.15187653252 2570.47699833141 2741.8021201303 2913.12724192917 3084.45236372806 3255.77748552695 3427.10260732584 3598.42772912473 3769.75285092362 3941.07797272251 4112.4030945214 4283.72821632029 4455.05333811917 4626.37845991806 4797.70358171694 4969.02870351583 5140.35382531473
     104        0.077 0.00064894513   -1979411.6    6854.3355 
0.078 0.617837165293356 171.925293146979 343.250414945867 514.575536744754 685.900658543644 857.225780342529 1028.55090214142 1199.87602394031 1371.20114573919 1542.52626753808 1713.85138933697 1885.17651113586 2056.50163293475 2227.82675473364 2399.15187653252 2570.47699833141 2741.8021201303 2913.12724192917 3084.45236372806 3255.77748552695 3427.10260732584 3598.42772912473 3769.75285092362 3941.07797272251 4112.4030945214 4283.72821632029 4455.05333811917 4626.37845991806 4797.70358171694 4969.02870351583 5140.35382531473
     105        0.078 0.00066227223   -1979411.6    6854.3355 
0.079 0.618083617134412 171.925293146979 343.250414945867 514.575536744755 685.900658543643 857.225780342529 1028.55090214142 1199.87602394031 1371.20114573919 1542.52626753808 1713.85138933697 1885.17651113586 2056.50163293475 2227.82675473364 2399.15187653252 2570.47699833141 2741.8021201303 2913.12724192917 3084.45236372806 3255.77748552695 3427.10260732584 3598.42772912473 3769.75285092362 3941.07797272251 4112.4030945214 4283.72821632029 4455.05333811917 4626.37845991806 4797.70358171694 4969.02870351583 5140.35382531473
     106        0.079 0.00067549184   -1979411.6    6854.3355 
0.08 0.618329944383726 171.925293146979 343.250414945867 514.575536744754 685.900658543643 857.225780342529 1028.55090214142 1199.87602394031 1371.20114573919 1542.52626753808 1713.85138933697 1885.17651113586 2056.50163293475 2227.82675473364 2399.15187653252 2570.47699833141 2741.8021201303 2913.12724192917 3084.45236372806 3255.77748552695 3427.10260732584 3598.42772912473 3769.75285092362 3941.07797272251 4112.4030945214 4283.72821632029 4455.05333811917 4626.37845991806 4797.70358171694 4969.02870351583 5140.35382531473
     107         0.08  0.000688599   -1979411.6    6854.3355 
0.081 0.618576145485363 171.925293146979 343.250414945867 514.575536744754 685.900658543643 857.225780342529 1028.55090214142 1199.87602394031 1371.20114573919 1542.52626753808 1713.85138933697 1885.17651113586 2056.50163293475 2227.82675473364 2399.15187653252 2570.47699833141 2741.8021201303 2913.12724192917 3084.45236372806 3255.77748552695 3427.10260732584 3598.42772912473 3769.75285092362 3941.07797272251 4112.4030945214 4283.72821632029 4455.05333811917 4626.37845991806 4797.70358171694 4969.02870351583 5140.35382531473
     108        0.081 0.00070158959   -1979411.6    6854.3355 
0.082 0.618822218884182 171.925293146979 343.250414945867 514.575536744754 685.900658543643 857.22578034253 1028.55090214142 1199.87602394031 1371.20114573919 1542.52626753808 1713.85138933697 1885.17651113586 2056.50163293475 2227.82675473364 2399.15187653252 2570.47699833141 2741.8021201303 2913.12724192917 3084.45236372806 3255.77748552695 3427.10260732584 3598.42772912473 3769.75285092362 3941.07797272251 4112.4030945214 4283.72821632029 4455.05333811917 4626.37845991806 4797.70358171694 4969.02870351583 5140.35382531473
     109        0.082 0.00071446029   -1979411.6    6854.3355 
0.083 0.61906816302585 171.925293146979 343.250414945867 514.575536744754 685.900658543643 857.22578034253 1028.55090214142 1199.87602394031 1371.20114573919 1542.52626753808 1713.85138933697 1885.17651113586 2056.50163293475 2227.82675473364 2399.15187653252 2570.47699833141 2741.8021201303 2913.12724192917 3084.45236372806 3255.77748552695 3427.10260732584 3598.42772912473 3769.75285092362 3941.07797272251 4112.4030945214 4283.72821632029 4455.05333811917 4626.37845991806 4797.70358171694 4969.02870351583 5140.35382531473
     110        0.083 0.00072720857   -1979411.6    6854.3355 
0.084 0.61931397635685 171.925293146979 343.250414945867 514.575536744755 685.900658543643 857.22578034253 1028.55090214142 1199.87602394031 1371.20114573919 1542.52626753808 1713.85138933697 1885.17651113586 2056.50163293475 2227.82675473364 2399.15187653252 2570.47699833141 2741.8021201303 2913.12724192917 3084.45236372806 3255.77748552695 3427.10260732584 3598.42772912473 3769.75285092362 3941.07797272251 4112.4030945214 4283.72821632029 4455.05333811917 4626.37845991806 4797.70358171694 4969.02870351583 5140.35382531473
     111        0.084 0.00073983264   -1979411.6    6854.3355 
0.085 0.61955965732449 171.925293146979 343.250414945867 514.575536744755 685.900658543642 857.22578034253 1028.55090214142 1199.8760239403 1371.20114573919 1542.52626753808 1713.85138933697 1885.17651113586 2056.50163293475 2227.82675473364 2399.15187653252 2570.47699833141 2741.8021201303 2913.12724192917 3084.45236372806 3255.77748552695 3427.10260732584 3598.42772912473 3769.75285092362 3941.07797272251 4112.4030945214 4283.72821632029 4455.05333811917 4626.37845991806 4797.70358171694 4969.02870351583 5140.35382531473
     112        0.085 0.00075233143   -1979411.6    6854.3355 
0.086 0.619805204376919 171.925293146979 343.250414945867 514.575536744755 685.900658543642 857.22578034253 1028.55090214142 1199.8760239403 1371.20114573919 1542.52626753808 1713.85138933697 1885.17651113586 2056.50163293475 2227.82675473364 2399.15187653252 2570.47699833141 2741.8021201303 2913.12724192917 3084.45236372806 3255.77748552695 3427.10260732584 3598.42772912473 3769.75285092362 3941.07797272251 4112.4030945214 4283.72821632029 4455.05333811917 4626.37845991806 4797.70358171694 4969.02870351583 5140.35382531473
     113        0.086 0.00076470455   -1979411.6    6854.3355 
0.087 0.620050615963125 171.925293146979 343.250414945867 514.575536744755 685.900658543642 857.22578034253 1028.55090214142 1199.8760239403 1371.20114573919 1542.52626753808 1713.85138933697 1885.17651113586 2056.50163293475 2227.82675473364 2399.15187653252 2570.47699833141 2741.8021201303 2913.12724192917 3084.45236372806 3255.77748552695 3427.10260732584 3598.42772912473 3769.75285092362 3941.07797272251 4112.4030945214 4283.72821632029 4455.05333811917 4626.37845991806 4797.70358171694 4969.02870351583 5140.35382531473
     114        0.087 0.00077695224   -1979411.5    6854.3355 
0.088 0.620295890532958 171.925293146979 343.250414945867 514.575536744755 685.900658543643 857.22578034253 1028.55090214142 1199.8760239403 1371.20114573919 1542.52626753808 1713.85138933697 1885.17651113586 2056.50163293475 2227.82675473364 2399.15187653252 2570.47699833141 2741.8021201303 2913.12724192917 3084.45236372806 3255.77748552695 3427.10260732584 3598.42772912473 3769.75285092362 3941.07797272251 4112.4030945214 4283.72821632029 4455.05333811917 4626.37845991806 4797.70358171694 4969.02870351583 5140.35382531473
     115        0.088 0.00078907533   -1979411.5    6854.3355 
0.089 0.620541026537128 171.925293146979 343.250414945867 514.575536744755 685.900658543642 857.22578034253 1028.55090214142 1199.8760239403 1371.20114573919 1542.52626753808 1713.85138933697 1885.17651113586 2056.50163293474 2227.82675473364 2399.15187653252 2570.47699833141 2741.8021201303 2913.12724192917 3084.45236372806 3255.77748552695 3427.10260732584 3598.42772912473 3769.75285092362 3941.07797272251 4112.4030945214 4283.72821632029 4455.05333811917 4626.37845991806 4797.70358171694 4969.02870351583 5140.35382531473
     116        0.089 0.00080107519   -1979411.5    6854.3355 
0.09 0.620786022427223 171.925293146979 343.250414945867 514.575536744755 685.900658543642 857.22578034253 1028.55090214142 1199.8760239403 1371.20114573919 1542.52626753808 1713.85138933697 1885.17651113586 2056.50163293474 2227.82675473364 2399.15187653252 2570.47699833141 2741.8021201303 2913.12724192917 3084.45236372806 3255.77748552695 3427.10260732584 3598.42772912473 3769.75285092362 3941.07797272251 4112.4030945214 4283.72821632029 4455.05333811917 4626.37845991806 4797.70358171694 4969.02870351583 5140.35382531473
     117         0.09 0.0008129537   -1979411.5    6854.3355 
0.091 0.621030876655717 171.925293146979 343.250414945867 514.575536744755 685.900658543642 857.22578034253 1028.55090214142 1199.8760239403 1371.20114573919 1542.52626753808 1713.85138933697 1885.17651113586 2056.50163293474 2227.82675473364 2399.15187653252 2570.47699833141 2741.8021201303 2913.12724192917 3084.45236372806 3255.77748552695 3427.10260732584 3598.42772912473 3769.75285092362 3941.07797272251 4112.4030945214 4283.72821632029 4455.05333811917 4626.37845991806 4797.70358171694 4969.02870351583 5140.35382531473
     118        0.091 0.00082471318   -1979411.5    6854.3355 
0.092 0.621275587675978 171.925293146979 343.250414945867 514.575536744754 685.900658543642 857.22578034253 1028.55090214142 1199.87602394031 1371.20114573919 1542.52626753808 1713.85138933697 1885.17651113585 2056.50163293474 2227.82675473364 2399.15187653252 2570.47699833141 2741.8021201303 2913.12724192917 3084.45236372806 3255.77748552695 3427.10260732584 3598.42772912473 3769.75285092362 3941.07797272251 4112.4030945214 4283.72821632029 4455.05333811917 4626.37845991806 4797.70358171694 4969.02870351583 5140.35382531473
     119        0.092 0.00083635632   -1979411.5    6854.3355 
0.093 0.621520153942276 171.925293146979 343.250414945867 514.575536744754 685.900658543642 857.22578034253 1028.55090214142 1199.87602394031 1371.20114573919 1542.52626753808 1713.85138933697 1885.17651113586 2056.50163293475 2227.82675473364 2399.15187653252 2570.47699833141 2741.8021201303 2913.12724192917 3084.45236372806 3255.77748552695 3427.10260732584 3598.42772912473 3769.75285092362 3941.07797272251 4112.4030945214 4283.72821632029 4455.05333811917 4626.37845991806 4797.70358171694 4969.02870351583 5140.35382531473
     120        0.093 0.00084788621   -1979411.5    6854.3355 
0.094 0.621764573909799 171.925293146979 343.250414945867 514.575536744754 685.900658543642 857.22578034253 1028.55090214142 1199.87602394031 1371.20114573919 1542.52626753808 1713.85138933697 1885.17651113586 2056.50163293475 2227.82675473364 2399.15187653252 2570.47699833141 2741.8021201303 2913.12724192917 3084.45236372806 3255.77748552695 3427.10260732584 3598.42772912473 3769.75285092362 3941.07797272251 4112.4030945214 4283.72821632029 4455.05333811917 4626.37845991806 4797.70358171694 4969.02870351583 5140.35382531473
     121        0.094 0.00085930618   -1979411.5    6854.3355 
0.095 0.622008846034658 171.925293146979 343.250414945867 514.575536744755 685.900658543642 857.22578034253 1028.55090214142 1199.87602394031 1371.20114573919 1542.52626753808 1713.85138933697 1885.17651113586 2056.50163293474 2227.82675473364 2399.15187653252 2570.47699833141 2741.8021201303 2913.12724192917 3084.45236372806 3255.77748552695 3427.10260732584 3598.42772912473 3769.75285092362 3941.07797272251 4112.4030945214 4283.72821632029 4455.05333811917 4626.37845991806 4797.70358171694 4969.02870351583 5140.35382531473
     122        0.095 0.00087061985   -1979411.5    6854.3355 
0.096 0.622252968773896 171.925293146979 343.250414945867 514.575536744755 685.900658543642 857.22578034253 1028.55090214142 1199.87602394031 1371.20114573919 1542.52626753808 1713.85138933697 1885.17651113586 2056.50163293475 2227.82675473364 2399.15187653252 2570.47699833141 2741.8021201303 2913.12724192917 3084.45236372806 3255.77748552695 3427.10260732584 3598.42772912473 3769.75285092362 3941.07797272251 4112.4030945214 4283.72821632029 4455.05333811917 4626.37845991806 4797.70358171694 4969.02870351583 5140.35382531473
     123        0.096 0.00088183101   -1979411.5    6854.3355 
0.097 0.622496940585503 171.925293146979 343.250414945867 514.575536744755 685.900658543642 857.22578034253 1028.55090214142 1199.87602394031 1371.20114573919 1542.52626753808 1713.85138933697 1885.17651113586 2056.50163293475 2227.82675473364 2399.15187653252 2570.47699833141 2741.8021201303 2913.12724192917 3084.45236372806 3255.77748552695 3427.10260732584 3598.42772912473 3769.75285092362 3941.07797272251 4112.4030945214 4283.72821632029 4455.05333811917 4626.37845991806 4797.70358171694 4969.02870351583 5140.35382531473
     124        0.097 0.00089294362   -1979411.5    6854.3355 
0.098 0.622740759928419 171.925293146979 343.250414945867 514.575536744755 685.900658543642 857.22578034253 1028.55090214142 1199.87602394031 1371.20114573919 1542.52626753808 1713.85138933697 1885.17651113586 2056.50163293474 2227.82675473364 2399.15187653252 2570.47699833141 2741.8021201303 2913.12724192917 3084.45236372806 3255.77748552695 3427.10260732584 3598.42772912473 3769.75285092362 3941.07797272251 4112.4030945214 4283.72821632029 4455.05333811917 4626.37845991806 4797.70358171694 4969.02870351583 5140.35382531473
     125        0.098 0.00090396173   -1979411.5    6854.3355 
0.099 0.62298442526255 171.925293146979 343.250414945867 514.575536744755 685.900658543642 857.22578034253 1028.55090214142 1199.87602394031 1371.20114573919 1542.52626753808 1713.85138933697 1885.17651113586 2056.50163293474 2227.82675473364 2399.15187653252 2570.47699833141 2741.8021201303 2913.12724192917 3084.45236372806 3255.77748552695 3427.10260732584 3598.42772912473 3769.75285092362 3941.07797272251 4112.4030945214 4283.72821632029 4455.05333811917 4626.37845991806 4797.70358171694 4969.02870351583 5140.35382531473
     126        0.099 0.00091488945   -1979411.5    6854.3355 
0.1 0.623227935048771 171.925293146979 343.250414945867 514.575536744755 685.900658543642 857.22578034253 1028.55090214142 1199.87602394031 1371.20114573919 1542.52626753808 1713.85138933697 1885.17651113586 2056.50163293474 2227.82675473364 2399.15187653252 2570.47699833141 2741.8021201303 2913.12724192917 3084.45236372806 3255.77748552695 3427.10260732584 3598.42772912473 3769.75285092362 3941.07797272251 4112.4030945214 4283.72821632029 4455.05333811917 4626.37845991806 4797.70358171694 4969.02870351583 5140.35382531473
     127          0.1 0.00092573094   -1979411.5    6854.3355 
Loop time of 3.53206 on 64 procs for 100 steps with 480200 atoms

Performance: 2.446 ns/day, 9.811 hours/ns, 28.312 timesteps/s
100.0% CPU use with 64 MPI tasks x no OpenMP threads

MPI task timing breakdown:
Section |  min time  |  avg time  |  max time  |%varavg| %total
---------------------------------------------------------------
Pair    | 6.5877e-05 | 2.0698     | 3.288      |  90.6 | 58.60
Neigh   | 0          | 0          | 0          |   0.0 |  0.00
Comm    | 4.049e-05  | 0.065294   | 0.80656    |  58.8 |  1.85
Output  | 0.01377    | 0.083615   | 0.084998   |   3.0 |  2.37
Modify  | 0.13711    | 1.3013     | 3.5022     | 117.1 | 36.84
Other   |            | 0.01207    |            |       |  0.34

Nlocal:        7503.12 ave       10700 max           0 min
Histogram: 18 0 0 0 0 2 0 0 0 44
Nghost:        12340.7 ave       17554 max           0 min
Histogram: 18 0 0 0 0 2 0 0 0 44
Neighs:         629997 ave      899062 max           0 min
Histogram: 18 0 0 0 0 2 0 0 0 44

Total # of neighbors = 40319800
Ave neighs/atom = 83.964598
Neighbor list builds = 0
Dangerous builds = 0
WARNING: One or more atoms are time integrated more than once (../modify.cpp:281)
Setting up Verlet run ...
  Unit style    : metal
  Current step  : 127
  Time step     : 0.001
0.1 0.623227935048771 171.925293146979 343.250414945867 514.575536744755 685.900658543642 857.22578034253 1028.55090214142 1199.87602394031 1371.20114573919 1542.52626753808 1713.85138933697 1885.17651113586 2056.50163293474 2227.82675473364 2399.15187653252 2570.47699833141 2741.8021201303 2913.12724192917 3084.45236372806 3255.77748552695 3427.10260732583 3598.42772912473 3769.75285092362 3941.07797272251 4112.4030945214 4283.72821632029 4455.05333811917 4626.37845991806 4797.70358171694 4969.02870351583 5140.35382531473
Per MPI rank memory allocation (min/avg/max) = 3.587 | 8.832 | 11.03 Mbytes
Step Time Temp TotEng c_xMax 
     127          0.1 0.00092573094   -1979411.5    6854.3355 
0.101 0.623471287748944 171.925293146979 343.250414945867 514.575536744755 685.900658543642 857.22578034253 1028.55090214142 1199.87602394031 1371.20114573919 1542.52626753808 1713.85138933697 1885.17651113586 2056.50163293474 2227.82675473364 2399.15187653252 2570.47699833141 2741.8021201303 2913.12724192917 3084.45236372806 3255.77748552695 3427.10260732583 3598.42772912473 3769.75285092362 3941.07797272251 4112.4030945214 4283.72821632029 4455.05333811917 4626.37845991806 4797.70358171694 4969.02870351583 5140.35382531473
     128        0.101 0.00093649032   -1979411.5    6854.3355 
0.102 0.623714481825919 171.925293146979 343.250414945867 514.575536744755 685.900658543642 857.22578034253 1028.55090214142 1199.87602394031 1371.20114573919 1542.52626753808 1713.85138933697 1885.17651113586 2056.50163293474 2227.82675473364 2399.15187653252 2570.47699833141 2741.8021201303 2913.12724192917 3084.45236372806 3255.77748552695 3427.10260732583 3598.42772912473 3769.75285092362 3941.07797272251 4112.4030945214 4283.72821632029 4455.05333811917 4626.37845991806 4797.70358171694 4969.02870351583 5140.35382531473
     129        0.102 0.00094717165   -1979411.5    6854.3355 
0.103 0.623957515743553 171.925293146979 343.250414945867 514.575536744755 685.900658543642 857.22578034253 1028.55090214142 1199.87602394031 1371.20114573919 1542.52626753808 1713.85138933697 1885.17651113586 2056.50163293474 2227.82675473364 2399.15187653252 2570.47699833141 2741.8021201303 2913.12724192917 3084.45236372806 3255.77748552695 3427.10260732583 3598.42772912473 3769.75285092362 3941.07797272251 4112.4030945214 4283.72821632029 4455.05333811917 4626.37845991806 4797.70358171694 4969.02870351583 5140.35382531473
     130        0.103 0.00095777893   -1979411.5    6854.3355 
0.104 0.624200387966709 171.925293146979 343.250414945867 514.575536744754 685.900658543642 857.22578034253 1028.55090214142 1199.87602394031 1371.20114573919 1542.52626753808 1713.85138933697 1885.17651113586 2056.50163293474 2227.82675473364 2399.15187653252 2570.47699833141 2741.8021201303 2913.12724192917 3084.45236372806 3255.77748552695 3427.10260732583 3598.42772912473 3769.75285092362 3941.07797272251 4112.4030945214 4283.72821632029 4455.05333811917 4626.37845991806 4797.70358171694 4969.02870351583 5140.35382531473
     131        0.104 0.00096831602   -1979411.5    6854.3355 
0.105 0.624443096961274 171.925293146979 343.250414945867 514.575536744754 685.900658543642 857.22578034253 1028.55090214142 1199.87602394031 1371.20114573919 1542.52626753808 1713.85138933697 1885.17651113586 2056.50163293474 2227.82675473364 2399.15187653252 2570.47699833141 2741.8021201303 2913.12724192917 3084.45236372806 3255.77748552695 3427.10260732583 3598.42772912473 3769.75285092362 3941.07797272251 4112.4030945214 4283.72821632029 4455.05333811917 4626.37845991806 4797.70358171694 4969.02870351583 5140.35382531473
     132        0.105 0.00097878666   -1979411.5    6854.3355 
0.106 0.624685641194169 171.925293146979 343.250414945867 514.575536744754 685.900658543642 857.22578034253 1028.55090214142 1199.87602394031 1371.20114573919 1542.52626753808 1713.85138933697 1885.17651113586 2056.50163293474 2227.82675473364 2399.15187653252 2570.47699833141 2741.8021201303 2913.12724192917 3084.45236372806 3255.77748552695 3427.10260732583 3598.42772912473 3769.75285092362 3941.07797272251 4112.4030945214 4283.72821632029 4455.05333811917 4626.37845991806 4797.70358171694 4969.02870351583 5140.35382531473
     133        0.106 0.00098919443   -1979411.5    6854.3355 
0.107 0.62492801913335 171.925293146979 343.250414945867 514.575536744754 685.900658543642 857.22578034253 1028.55090214142 1199.87602394031 1371.20114573919 1542.52626753808 1713.85138933697 1885.17651113586 2056.50163293474 2227.82675473364 2399.15187653252 2570.47699833141 2741.8021201303 2913.12724192917 3084.45236372806 3255.77748552695 3427.10260732583 3598.42772912473 3769.75285092362 3941.07797272251 4112.4030945214 4283.72821632029 4455.05333811917 4626.37845991806 4797.70358171694 4969.02870351583 5140.35382531473
     134        0.107 0.00099954272   -1979411.5    6854.3355 
0.108 0.625170229247828 171.925293146979 343.250414945867 514.575536744755 685.900658543642 857.22578034253 1028.55090214142 1199.87602394031 1371.20114573919 1542.52626753808 1713.85138933697 1885.17651113586 2056.50163293474 2227.82675473364 2399.15187653252 2570.47699833141 2741.8021201303 2913.12724192917 3084.45236372806 3255.77748552695 3427.10260732583 3598.42772912473 3769.75285092362 3941.07797272251 4112.4030945214 4283.72821632029 4455.05333811917 4626.37845991806 4797.70358171694 4969.02870351583 5140.35382531473
     135        0.108 0.0010098347   -1979411.5    6854.3355 
0.109 0.625412270007671 171.925293146979 343.250414945867 514.575536744755 685.900658543642 857.22578034253 1028.55090214142 1199.87602394031 1371.20114573919 1542.52626753808 1713.85138933697 1885.17651113586 2056.50163293474 2227.82675473364 2399.15187653252 2570.47699833141 2741.8021201303 2913.12724192917 3084.45236372806 3255.77748552695 3427.10260732583 3598.42772912473 3769.75285092362 3941.07797272251 4112.4030945214 4283.72821632029 4455.05333811917 4626.37845991806 4797.70358171694 4969.02870351583 5140.35382531473
     136        0.109 0.0010200734   -1979411.5    6854.3355 
0.11 0.625654139884018 171.925293146979 343.250414945867 514.575536744755 685.900658543642 857.22578034253 1028.55090214142 1199.87602394031 1371.20114573919 1542.52626753808 1713.85138933697 1885.17651113586 2056.50163293474 2227.82675473364 2399.15187653252 2570.47699833141 2741.8021201303 2913.12724192917 3084.45236372806 3255.77748552695 3427.10260732583 3598.42772912473 3769.75285092362 3941.07797272251 4112.4030945214 4283.72821632029 4455.05333811917 4626.37845991806 4797.70358171694 4969.02870351583 5140.35382531473
     137         0.11 0.0010302616   -1979411.5    6854.3355 
0.111 0.625895837349087 171.925293146979 343.250414945867 514.575536744755 685.900658543642 857.22578034253 1028.55090214142 1199.87602394031 1371.20114573919 1542.52626753808 1713.85138933697 1885.17651113586 2056.50163293474 2227.82675473364 2399.15187653252 2570.47699833141 2741.8021201303 2913.12724192917 3084.45236372806 3255.77748552695 3427.10260732583 3598.42772912473 3769.75285092362 3941.07797272251 4112.4030945214 4283.72821632029 4455.05333811917 4626.37845991806 4797.70358171694 4969.02870351583 5140.35382531473
     138        0.111 0.0010404019   -1979411.5    6854.3355 
0.112 0.626137360876188 171.925293146979 343.250414945867 514.575536744755 685.900658543642 857.22578034253 1028.55090214142 1199.87602394031 1371.20114573919 1542.52626753808 1713.85138933697 1885.17651113586 2056.50163293474 2227.82675473364 2399.15187653252 2570.47699833141 2741.8021201303 2913.12724192917 3084.45236372806 3255.77748552695 3427.10260732583 3598.42772912473 3769.75285092362 3941.07797272251 4112.4030945214 4283.72821632029 4455.05333811917 4626.37845991806 4797.70358171694 4969.02870351583 5140.35382531473
     139        0.112 0.0010504965   -1979411.5    6854.3355 
0.113 0.626378708939725 171.925293146979 343.250414945867 514.575536744755 685.900658543642 857.22578034253 1028.55090214142 1199.8760239403 1371.20114573919 1542.52626753808 1713.85138933697 1885.17651113586 2056.50163293474 2227.82675473364 2399.15187653252 2570.47699833141 2741.8021201303 2913.12724192917 3084.45236372806 3255.77748552695 3427.10260732583 3598.42772912473 3769.75285092362 3941.07797272251 4112.4030945214 4283.72821632029 4455.05333811917 4626.37845991806 4797.70358171694 4969.02870351583 5140.35382531473
     140        0.113 0.0010605476   -1979411.5    6854.3355 
0.114 0.626619880015212 171.925293146979 343.250414945867 514.575536744755 685.900658543642 857.22578034253 1028.55090214142 1199.8760239403 1371.20114573919 1542.52626753808 1713.85138933697 1885.17651113586 2056.50163293474 2227.82675473364 2399.15187653252 2570.47699833141 2741.8021201303 2913.12724192917 3084.45236372806 3255.77748552695 3427.10260732583 3598.42772912473 3769.75285092362 3941.07797272251 4112.4030945214 4283.72821632029 4455.05333811917 4626.37845991806 4797.70358171694 4969.02870351583 5140.35382531473
     141        0.114 0.0010705571   -1979411.5    6854.3355 
0.115 0.626860872579283 171.925293146979 343.250414945867 514.575536744755 685.900658543642 857.22578034253 1028.55090214142 1199.8760239403 1371.20114573919 1542.52626753808 1713.85138933697 1885.17651113586 2056.50163293474 2227.82675473364 2399.15187653252 2570.47699833141 2741.8021201303 2913.12724192917 3084.45236372806 3255.77748552695 3427.10260732583 3598.42772912473 3769.75285092362 3941.07797272251 4112.4030945214 4283.72821632028 4455.05333811917 4626.37845991806 4797.70358171694 4969.02870351583 5140.35382531473
     142        0.115 0.0010805268   -1979411.5    6854.3355 
[...]
    1149        1.122 0.0055116194     -1979411    6854.3359 
1.123 0.629738306519805 171.925293146979 343.250414945867 514.575536744755 685.900658543643 857.22578034253 1028.55090214142 1199.8760239403 1371.20114573919 1542.52626753808 1713.85138933697 1885.17651113585 2056.50163293475 2227.82675473364 2399.15187653252 2570.47699833141 2741.80212013029 2913.12724192917 3084.45236372806 3255.77748552695 3427.10260732583 3598.42772912473 3769.75285092362 3941.07797272251 4112.4030945214 4283.72821632029 4455.05333811917 4626.37845991806 4797.70358171694 4969.02870351583 5140.35382531473
    1150        1.123 0.0055217432     -1979411    6854.3359 
1.124 0.629499574495359 171.925293146979 343.250414945867 514.575536744755 685.900658543643 857.22578034253 1028.55090214142 1199.87602394031 1371.20114573919 1542.52626753808 1713.85138933697 1885.17651113586 2056.50163293475 2227.82675473364 2399.15187653252 2570.47699833141 2741.80212013029 2913.12724192917 3084.45236372806 3255.77748552695 3427.10260732583 3598.42772912473 3769.75285092362 3941.07797272251 4112.4030945214 4283.72821632029 4455.05333811917 4626.37845991806 4797.70358171694 4969.02870351583 5140.35382531473
    1151        1.124 0.0055318808     -1979411    6854.3359 
1.125 0.62926064576978 171.925293146979 343.250414945867 514.575536744755 685.900658543643 857.22578034253 1028.55090214142 1199.87602394031 1371.20114573919 1542.52626753808 1713.85138933697 1885.17651113586 2056.50163293475 2227.82675473364 2399.15187653252 2570.47699833141 2741.80212013029 2913.12724192917 3084.45236372806 3255.77748552695 3427.10260732583 3598.42772912473 3769.75285092362 3941.07797272251 4112.4030945214 4283.72821632029 4455.05333811917 4626.37845991806 4797.70358171694 4969.02870351583 5140.35382531473
    1152        1.125 0.0055420323     -1979411    6854.3359 
1.126 0.629021521852274 171.925293146979 343.250414945867 514.575536744755 685.900658543643 857.22578034253 1028.55090214142 1199.87602394031 1371.20114573919 1542.52626753808 1713.85138933697 1885.17651113586 2056.50163293475 2227.82675473364 2399.15187653252 2570.47699833141 2741.80212013029 2913.12724192917 3084.45236372806 3255.77748552695 3427.10260732583 3598.42772912473 3769.75285092362 3941.07797272251 4112.4030945214 4283.72821632029 4455.05333811917 4626.37845991806 4797.70358171694 4969.02870351583 5140.35382531473
    1153        1.126 0.0055521978     -1979411    6854.3359 
1.127 0.628782204253276 171.925293146979 343.250414945867 514.575536744755 685.900658543643 857.22578034253 1028.55090214142 1199.8760239403 1371.20114573919 1542.52626753808 1713.85138933697 1885.17651113585 2056.50163293475 2227.82675473364 2399.15187653252 2570.47699833141 2741.80212013029 2913.12724192917 3084.45236372806 3255.77748552695 3427.10260732583 3598.42772912473 3769.75285092362 3941.07797272251 4112.4030945214 4283.72821632029 4455.05333811917 4626.37845991806 4797.70358171694 4969.02870351583 5140.35382531473
    1154        1.127 0.0055623774     -1979411    6854.3359 
1.128 0.628542694484446 171.925293146979 343.250414945867 514.575536744755 685.900658543642 857.22578034253 1028.55090214142 1199.87602394031 1371.20114573919 1542.52626753808 1713.85138933697 1885.17651113586 2056.50163293474 2227.82675473364 2399.15187653252 2570.47699833141 2741.80212013029 2913.12724192917 3084.45236372806 3255.77748552695 3427.10260732583 3598.42772912473 3769.75285092362 3941.07797272251 4112.4030945214 4283.72821632029 4455.05333811917 4626.37845991806 4797.70358171694 4969.02870351583 5140.35382531473
    1155        1.128 0.0055725711     -1979411    6854.3359 
1.129 0.628302994058657 171.925293146979 343.250414945867 514.575536744755 685.900658543642 857.22578034253 1028.55090214142 1199.87602394031 1371.20114573919 1542.52626753808 1713.85138933697 1885.17651113586 2056.50163293474 2227.82675473364 2399.15187653252 2570.47699833141 2741.80212013029 2913.12724192917 3084.45236372806 3255.77748552695 3427.10260732583 3598.42772912473 3769.75285092362 3941.07797272251 4112.4030945214 4283.72821632029 4455.05333811917 4626.37845991806 4797.70358171694 4969.02870351583 5140.35382531473
    1156        1.129 0.0055827791     -1979411    6854.3359 
1.13 0.628063104489989 171.925293146979 343.250414945867 514.575536744755 685.900658543642 857.22578034253 1028.55090214142 1199.8760239403 1371.20114573919 1542.52626753808 1713.85138933697 1885.17651113586 2056.50163293474 2227.82675473364 2399.15187653252 2570.47699833141 2741.80212013029 2913.12724192917 3084.45236372806 3255.77748552695 3427.10260732583 3598.42772912473 3769.75285092362 3941.07797272251 4112.4030945214 4283.72821632029 4455.05333811917 4626.37845991806 4797.70358171694 4969.02870351583 5140.35382531473
    1157         1.13 0.0055930014     -1979411    6854.3359 
1.131 0.627823027293715 171.925293146979 343.250414945867 514.575536744755 685.900658543642 857.22578034253 1028.55090214142 1199.87602394031 1371.20114573919 1542.52626753808 1713.85138933697 1885.17651113586 2056.50163293474 2227.82675473364 2399.15187653252 2570.47699833141 2741.80212013029 2913.12724192917 3084.45236372806 3255.77748552695 3427.10260732583 3598.42772912473 3769.75285092362 3941.07797272251 4112.4030945214 4283.72821632029 4455.05333811917 4626.37845991806 4797.70358171694 4969.02870351583 5140.35382531473
    1158        1.131 0.0056032382   -1979410.9    6854.3359 
1.132 0.627582763986291 171.925293146979 343.250414945867 514.575536744755 685.900658543642 857.22578034253 1028.55090214142 1199.87602394031 1371.20114573919 1542.52626753808 1713.85138933697 1885.17651113586 2056.50163293474 2227.82675473364 2399.15187653252 2570.47699833141 2741.80212013029 2913.12724192917 3084.45236372806 3255.77748552695 3427.10260732583 3598.42772912473 3769.75285092362 3941.07797272251 4112.4030945214 4283.72821632029 4455.05333811917 4626.37845991806 4797.70358171694 4969.02870351583 5140.35382531473
    1159        1.132 0.0056134896   -1979410.9    6854.3359 
1.133 0.627342316085352 171.925293146979 343.250414945867 514.575536744755 685.900658543643 857.22578034253 1028.55090214142 1199.87602394031 1371.20114573919 1542.52626753808 1713.85138933697 1885.17651113586 2056.50163293474 2227.82675473364 2399.15187653252 2570.47699833141 2741.80212013029 2913.12724192917 3084.45236372806 3255.77748552695 3427.10260732583 3598.42772912473 3769.75285092362 3941.07797272251 4112.4030945214 4283.72821632029 4455.05333811917 4626.37845991806 4797.70358171694 4969.02870351583 5140.35382531473
    1160        1.133 0.0056237556   -1979410.9    6854.3359 
1.134 0.627101685109697 171.925293146979 343.250414945867 514.575536744755 685.900658543642 857.225780342529 1028.55090214142 1199.87602394031 1371.20114573919 1542.52626753808 1713.85138933697 1885.17651113586 2056.50163293475 2227.82675473364 2399.15187653252 2570.47699833141 2741.80212013029 2913.12724192917 3084.45236372806 3255.77748552695 3427.10260732583 3598.42772912473 3769.75285092362 3941.07797272251 4112.4030945214 4283.72821632029 4455.05333811917 4626.37845991806 4797.70358171694 4969.02870351583 5140.35382531473
    1161        1.134 0.0056340364   -1979410.9    6854.3359 
1.135 0.626860872579283 171.925293146979 343.250414945867 514.575536744755 685.900658543643 857.22578034253 1028.55090214142 1199.87602394031 1371.20114573919 1542.52626753808 1713.85138933697 1885.17651113586 2056.50163293475 2227.82675473364 2399.15187653252 2570.47699833141 2741.80212013029 2913.12724192917 3084.45236372806 3255.77748552695 3427.10260732583 3598.42772912473 3769.75285092362 3941.07797272251 4112.4030945214 4283.72821632029 4455.05333811917 4626.37845991806 4797.70358171694 4969.02870351583 5140.35382531473
    1162        1.135 0.0056443319   -1979410.9    6854.3359 
1.136 0.626619880015212 171.925293146979 343.250414945867 514.575536744755 685.900658543642 857.22578034253 1028.55090214142 1199.87602394031 1371.20114573919 1542.52626753808 1713.85138933697 1885.17651113586 2056.50163293475 2227.82675473364 2399.15187653252 2570.47699833141 2741.80212013029 2913.12724192917 3084.45236372806 3255.77748552695 3427.10260732583 3598.42772912473 3769.75285092362 3941.07797272251 4112.4030945214 4283.72821632029 4455.05333811917 4626.37845991806 4797.70358171694 4969.02870351583 5140.35382531473
    1163        1.136 0.0056546424   -1979410.9    6854.3359 
1.137 0.626378708939725 171.925293146979 343.250414945867 514.575536744755 685.900658543642 857.22578034253 1028.55090214142 1199.87602394031 1371.20114573919 1542.52626753808 1713.85138933697 1885.17651113585 2056.50163293475 2227.82675473364 2399.15187653252 2570.47699833141 2741.80212013029 2913.12724192917 3084.45236372806 3255.77748552695 3427.10260732583 3598.42772912473 3769.75285092362 3941.07797272251 4112.4030945214 4283.72821632029 4455.05333811917 4626.37845991806 4797.70358171694 4969.02870351583 5140.35382531473
    1164        1.137 0.0056649677   -1979410.9    6854.3359 
1.138 0.626137360876189 171.925293146979 343.250414945867 514.575536744755 685.900658543642 857.22578034253 1028.55090214142 1199.87602394031 1371.20114573919 1542.52626753808 1713.85138933697 1885.17651113585 2056.50163293474 2227.82675473364 2399.15187653252 2570.47699833141 2741.80212013029 2913.12724192917 3084.45236372806 3255.77748552695 3427.10260732583 3598.42772912473 3769.75285092362 3941.07797272251 4112.4030945214 4283.72821632029 4455.05333811917 4626.37845991806 4797.70358171694 4969.02870351583 5140.35382531473
    1165        1.138  0.005675308   -1979410.9    6854.3359 
1.139 0.625895837349088 171.925293146979 343.250414945867 514.575536744755 685.900658543642 857.22578034253 1028.55090214142 1199.87602394031 1371.20114573919 1542.52626753808 1713.85138933697 1885.17651113586 2056.50163293474 2227.82675473364 2399.15187653252 2570.47699833141 2741.80212013029 2913.12724192917 3084.45236372806 3255.77748552695 3427.10260732583 3598.42772912473 3769.75285092362 3941.07797272251 4112.4030945214 4283.72821632029 4455.05333811917 4626.37845991806 4797.70358171694 4969.02870351583 5140.35382531473
    1166        1.139 0.0056856633   -1979410.9    6854.3359 
1.14 0.625654139884018 171.925293146979 343.250414945867 514.575536744755 685.900658543642 857.22578034253 1028.55090214142 1199.8760239403 1371.20114573919 1542.52626753808 1713.85138933697 1885.17651113586 2056.50163293474 2227.82675473364 2399.15187653252 2570.47699833141 2741.80212013029 2913.12724192917 3084.45236372806 3255.77748552695 3427.10260732583 3598.42772912473 3769.75285092362 3941.07797272251 4112.4030945214 4283.72821632029 4455.05333811917 4626.37845991806 4797.70358171694 4969.02870351583 5140.35382531473
    1167         1.14 0.0056960335   -1979410.9    6854.3359 
1.141 0.625412270007672 171.925293146979 343.250414945867 514.575536744755 685.900658543642 857.22578034253 1028.55090214142 1199.87602394031 1371.20114573919 1542.52626753808 1713.85138933697 1885.17651113586 2056.50163293474 2227.82675473364 2399.15187653252 2570.47699833141 2741.80212013029 2913.12724192917 3084.45236372806 3255.77748552695 3427.10260732583 3598.42772912473 3769.75285092362 3941.07797272251 4112.4030945214 4283.72821632029 4455.05333811917 4626.37845991806 4797.70358171694 4969.02870351583 5140.35382531473
    1168        1.141 0.0057064187   -1979410.9    6854.3359 
1.142 0.625170229247828 171.925293146979 343.250414945867 514.575536744755 685.900658543642 857.22578034253 1028.55090214142 1199.8760239403 1371.20114573919 1542.52626753808 1713.85138933697 1885.17651113586 2056.50163293474 2227.82675473364 2399.15187653252 2570.47699833141 2741.80212013029 2913.12724192917 3084.45236372806 3255.77748552695 3427.10260732583 3598.42772912473 3769.75285092362 3941.07797272251 4112.4030945214 4283.72821632029 4455.05333811917 4626.37845991806 4797.70358171694 4969.02870351583 5140.35382531473
    1169        1.142 0.0057168189   -1979410.9    6854.3359 
1.143 0.624928019133351 171.925293146979 343.250414945867 514.575536744755 685.900658543642 857.22578034253 1028.55090214142 1199.8760239403 1371.20114573919 1542.52626753808 1713.85138933697 1885.17651113586 2056.50163293474 2227.82675473364 2399.15187653252 2570.47699833141 2741.80212013029 2913.12724192917 3084.45236372806 3255.77748552695 3427.10260732583 3598.42772912473 3769.75285092362 3941.07797272251 4112.4030945214 4283.72821632029 4455.05333811917 4626.37845991806 4797.70358171694 4969.02870351583 5140.35382531473
    1170        1.143  0.005727234   -1979410.9    6854.3359 
1.144 0.62468564119417 171.925293146979 343.250414945867 514.575536744755 685.900658543642 857.22578034253 1028.55090214142 1199.8760239403 1371.20114573919 1542.52626753808 1713.85138933697 1885.17651113586 2056.50163293474 2227.82675473364 2399.15187653252 2570.47699833141 2741.80212013029 2913.12724192917 3084.45236372806 3255.77748552695 3427.10260732583 3598.42772912473 3769.75285092362 3941.07797272251 4112.4030945214 4283.72821632029 4455.05333811917 4626.37845991806 4797.70358171694 4969.02870351583 5140.35382531473
    1171        1.144  0.005737664   -1979410.9    6854.3359 
1.145 0.624443096961276 171.925293146979 343.250414945867 514.575536744755 685.900658543642 857.22578034253 1028.55090214142 1199.8760239403 1371.20114573919 1542.52626753808 1713.85138933697 1885.17651113585 2056.50163293474 2227.82675473364 2399.15187653252 2570.47699833141 2741.80212013029 2913.12724192917 3084.45236372806 3255.77748552695 3427.10260732583 3598.42772912473 3769.75285092362 3941.07797272251 4112.4030945214 4283.72821632029 4455.05333811917 4626.37845991806 4797.70358171694 4969.02870351583 5140.35382531473
    1172        1.145 0.0057481087   -1979410.9    6854.3359 
1.146 0.62420038796671 171.925293146979 343.250414945867 514.575536744755 685.900658543642 857.22578034253 1028.55090214142 1199.8760239403 1371.20114573919 1542.52626753808 1713.85138933697 1885.17651113585 2056.50163293474 2227.82675473364 2399.15187653252 2570.47699833141 2741.80212013029 2913.12724192917 3084.45236372806 3255.77748552695 3427.10260732583 3598.42772912473 3769.75285092362 3941.07797272251 4112.4030945214 4283.72821632029 4455.05333811917 4626.37845991806 4797.70358171694 4969.02870351583 5140.35382531473
    1173        1.146 0.0057585682   -1979410.9    6854.3359 
1.147 0.623957515743554 171.925293146979 343.250414945867 514.575536744755 685.900658543642 857.22578034253 1028.55090214142 1199.8760239403 1371.20114573919 1542.52626753808 1713.85138933697 1885.17651113585 2056.50163293474 2227.82675473364 2399.15187653252 2570.47699833141 2741.80212013029 2913.12724192917 3084.45236372806 3255.77748552695 3427.10260732583 3598.42772912473 3769.75285092362 3941.07797272251 4112.4030945214 4283.72821632029 4455.05333811917 4626.37845991806 4797.70358171694 4969.02870351583 5140.35382531473
    1174        1.147 0.0057690424   -1979410.9    6854.3359 
1.148 0.62371448182592 171.925293146979 343.250414945867 514.575536744755 685.900658543643 857.22578034253 1028.55090214142 1199.87602394031 1371.20114573919 1542.52626753808 1713.85138933697 1885.17651113585 2056.50163293474 2227.82675473364 2399.15187653252 2570.47699833141 2741.80212013029 2913.12724192917 3084.45236372806 3255.77748552695 3427.10260732583 3598.42772912473 3769.75285092362 3941.07797272251 4112.4030945214 4283.72821632029 4455.05333811917 4626.37845991806 4797.70358171694 4969.02870351583 5140.35382531473
    1175        1.148  0.005779531   -1979410.9    6854.3359 
1.149 0.623471287748944 171.925293146979 343.250414945867 514.575536744755 685.900658543642 857.22578034253 1028.55090214142 1199.87602394031 1371.20114573919 1542.52626753808 1713.85138933697 1885.17651113585 2056.50163293474 2227.82675473364 2399.15187653252 2570.47699833141 2741.80212013029 2913.12724192917 3084.45236372806 3255.77748552695 3427.10260732583 3598.42772912473 3769.75285092362 3941.07797272251 4112.4030945214 4283.72821632029 4455.05333811917 4626.37845991806 4797.70358171694 4969.02870351583 5140.35382531473
    1176        1.149 0.0057900341   -1979410.9    6854.3359 
1.15 0.623227935048771 171.925293146979 343.250414945867 514.575536744755 685.900658543642 857.22578034253 1028.55090214142 1199.87602394031 1371.20114573919 1542.52626753808 1713.85138933697 1885.17651113586 2056.50163293474 2227.82675473364 2399.15187653252 2570.47699833141 2741.80212013029 2913.12724192917 3084.45236372806 3255.77748552695 3427.10260732583 3598.42772912473 3769.75285092362 3941.07797272251 4112.4030945214 4283.72821632029 4455.05333811917 4626.37845991806 4797.70358171694 4969.02870351583 5140.35382531473
    1177         1.15 0.0058005515   -1979410.9    6854.3359 
1.151 0.62298442526255 171.925293146979 343.250414945867 514.575536744755 685.900658543642 857.22578034253 1028.55090214142 1199.8760239403 1371.20114573919 1542.52626753808 1713.85138933697 1885.17651113586 2056.50163293474 2227.82675473364 2399.15187653252 2570.47699833141 2741.80212013029 2913.12724192917 3084.45236372806 3255.77748552695 3427.10260732583 3598.42772912473 3769.75285092362 3941.07797272251 4112.4030945214 4283.72821632029 4455.05333811917 4626.37845991806 4797.70358171694 4969.02870351583 5140.35382531473
    1178        1.151  0.005811083   -1979410.9    6854.3359 
1.152 0.62274075992842 171.925293146979 343.250414945867 514.575536744755 685.900658543642 857.22578034253 1028.55090214142 1199.87602394031 1371.20114573919 1542.52626753808 1713.85138933697 1885.17651113586 2056.50163293474 2227.82675473364 2399.15187653252 2570.47699833141 2741.80212013029 2913.12724192917 3084.45236372806 3255.77748552695 3427.10260732583 3598.42772912473 3769.75285092362 3941.07797272251 4112.4030945214 4283.72821632029 4455.05333811917 4626.37845991806 4797.70358171694 4969.02870351583 5140.35382531473
    1179        1.152 0.0058216287   -1979410.9    6854.3359 
1.153 0.622496940585503 171.925293146979 343.250414945867 514.575536744755 685.900658543642 857.225780342529 1028.55090214142 1199.87602394031 1371.20114573919 1542.52626753808 1713.85138933697 1885.17651113586 2056.50163293474 2227.82675473364 2399.15187653252 2570.47699833141 2741.80212013029 2913.12724192917 3084.45236372806 3255.77748552695 3427.10260732583 3598.42772912473 3769.75285092362 3941.07797272251 4112.4030945214 4283.72821632029 4455.05333811917 4626.37845991806 4797.70358171694 4969.02870351583 5140.35382531473
    1180        1.153 0.0058321882   -1979410.9    6854.3359 
1.154 0.622252968773897 171.925293146979 343.250414945867 514.575536744755 685.900658543642 857.225780342529 1028.55090214142 1199.8760239403 1371.20114573919 1542.52626753808 1713.85138933697 1885.17651113586 2056.50163293474 2227.82675473364 2399.15187653252 2570.47699833141 2741.80212013029 2913.12724192917 3084.45236372806 3255.77748552695 3427.10260732583 3598.42772912473 3769.75285092362 3941.07797272251 4112.4030945214 4283.72821632029 4455.05333811917 4626.37845991806 4797.70358171694 4969.02870351583 5140.35382531473
    1181        1.154 0.0058427615   -1979410.9    6854.3359 
1.155 0.622008846034659 171.925293146979 343.250414945867 514.575536744755 685.900658543642 857.22578034253 1028.55090214142 1199.87602394031 1371.20114573919 1542.52626753808 1713.85138933697 1885.17651113586 2056.50163293474 2227.82675473364 2399.15187653252 2570.47699833141 2741.80212013029 2913.12724192917 3084.45236372806 3255.77748552695 3427.10260732583 3598.42772912473 3769.75285092362 3941.07797272251 4112.4030945214 4283.72821632029 4455.05333811917 4626.37845991806 4797.70358171694 4969.02870351583 5140.35382531473
    1182        1.155 0.0058533485   -1979410.9    6854.3359 
slurmstepd: error: *** JOB 7328713 ON r229n11 CANCELLED AT 2022-07-07T10:32:50 ***
